[Molden Format]
[Molpro variables]
_NUMVAR=  1094.000000000000    
_AVOGAD= 0.6022140760000000E+24
_BOLTZ= 0.1380649000000000E-22
_CLIGHTSI=  299792458.0000000    
_JOULE= 0.4359744722207100E-17
_JPCAL=  4.184000000000000    
_PLANCK= 0.6626070150000000E-33
_BOHR= 0.5291772109030000E-10
_ECHARG= 0.1602176634000000E-18
_ENULL= 0.8854187812800001E-11
_MU= 0.1660539066600000E-26
_EMASS= 0.9109383701500001E-30
_AMU2AU=  1822.888486217313    
_CLIGHT=  29979245800.00000    
_EV= 0.3674932217565494E-01
_KJOULE= 0.3808798847133432E-03
_KJOULE/MOL= 0.3808798847133432E-03
_CM= 0.4556335252912009E-05
_CM-1= 0.4556335252912009E-05
_DEB2SI= 0.3335640951981520E-29
_KCAL= 0.1593601437640628E-02
_KCAL/MOL= 0.1593601437640628E-02
_KELVIN= 0.3166811563455608E-05
_HERTZ= 0.1519829846057038E-15
_HZ= 0.1519829846057038E-15
_TOA= 0.5291772109030000    
_TOANG= 0.5291772109030000    
_TORAD= 0.1745329251994330E-01
_TOCM=  219474.6313631965    
_TODEBYE=  2.541746473194078    
_TOE= 0.4803204712570263E-09
_TOEV=  27.21138624598803    
_TOHERTZ=  6579683920501656.    
_TOHZ=  6579683920501656.    
_TOK=  315775.0248040668    
_TOKCAL=  627.5094740630558    
_TOKELVIN=  315775.0248040668    
_TOKJ=  2625.499639479825    
_TOKJOULE=  2625.499639479825    
_TOKG= 0.1660539066600000E-26
_ANG=  1.889726124625770    
_ANGSTROM=  1.889726124625770    
_RPAREF=  0.000000000000000    
_RPADISS=  0.000000000000000    
_IGNORE_UNDEF=  2.000000000000000    
_STRICTCHECK=  0.000000000000000    
!SEWARD=  0.000000000000000    
!MULTI=  0.000000000000000    
!DFMULTI=  0.000000000000000    
!NUMHESS=  0.000000000000000    
_SEW_ONEEL=  0.000000000000000    
_CPPDONE=FALSE
_DKROLL_DONE=  0.000000000000000    
_FNUC_DONE=  0.000000000000000    
_FOCKDONE=TRUE
_GRADONE=FALSE
_HESSDONE=TRUE
_INTDONE=TRUE
_SCFDONE=TRUE
_MODUL_BLOCK=FALSE
_MODUL_SLATER=TRUE
_MODUL_MRCC=FALSE
_MODUL_NBO6=FALSE
_MODUL_NECI=FALSE
_MODUL_AIMS=TRUE
_MODUL_HDF5=FALSE
_MODUL_GECCO=FALSE
_ISWINDOWS=FALSE
_MRCC_EXEC=
_FITC_AO_SAVED=FALSE
_FITC_MO_SAVED=FALSE
_LSTYP=SEWARD
_INTYP=INTS
_GEOMTYP=XYZ
_GRADTYP=ALASKA
_DIRECT=FALSE
_DKHO= -1.000000000000000    
_FNUC=  0.000000000000000    
_SYNCM=  0.000000000000000    
_BASIS=6-311G(D,P)
_ZCENTRE=MASS
_ZORIENT=  1.000000000000000    
_NELEC=  28.00000000000000    
!SPIN=  0.000000000000000    
_OPTCONV= 0.1285455441553216E-01
_QSDSTEP=  0.000000000000000    
_QSDIRC=  0.000000000000000    
_PROGRAM=FREQ
_CPUSTEP=  7.720000000000002    
_SYSSTEP= 0.2800000000000002    
_WALLSTEP=  7.990000000000000    
!DFSCF=  0.000000000000000    
!SCSGRD=  0.000000000000000    
_NCEN=  9.000000000000000    
_CPUTOT=  30.93000000000000    
_DFTEXFAC=  1.000000000000000    
_DMX= 0.3021644643521044    
_DMY= 0.3329951589651898    
_DMZ=  1.227245559096271    
_DMX_SCF= 0.3021644643521044    
_DMY_SCF= 0.3329951589651898    
_DMZ_SCF=  1.227245559096271    
_FREQUENCIES= 0.1358140723373188E-04
_HOMO=  14.10000000000000    
_EHOMO=-0.4650771612844794    
_LUMO=  15.10000000000000    
_ELUMO= 0.1427727482301226    
_ENERGY= -191.1318270932678    
_ENERGY_METHOD=HF
_ENERGY_BASIS=6-311G(D,P)
_GEOMETRY_METHOD=HF
_GEOMETRY_BASIS=6-311G(D,P)
_ENUC=  79.91945906709256    
_GRADENERG= -191.1318263518506    
_GRADEXFAC=  9999.000000000000    
_GRADMETHOD=  1.000000000000000    
_NMRMETHOD=  0.000000000000000    
_NMRMAGNET=  0.000000000000000    
_VIRIAL=-0.6463487157265074E-04
!GRID_FREEZE= -1.000000000000000    
!NEESE_INDEX=  0.000000000000000    
_ITERATIONS=  12.00000000000000    
_LASTNELEC=  28.00000000000000    
_LASTSPIN=  0.000000000000000    
_LASTSYM=  1.000000000000000    
_MPP_PROG=  1.000000000000000    
_MSNSTATES=  0.000000000000000    
_RS2PHASE=  0.000000000000000    
_NPROC_MPP=  6.000000000000000    
_NPROC_SMP=  6.000000000000000    
_NUMSTEP=  0.000000000000000    
_OPTCONVMX= 0.7607262468515502E-02
_OPTCONVRMS= 0.2805093744481188E-02
_OPTGRAD= 0.2427329026834692E-03
_OPTGRADMX= 0.1466055084316161E-03
_OPTGRADRMS= 0.5296866191444511E-04
!GMAXLAST= 0.1466055084316161E-03
!DMAXLAST= 0.7607262468515502E-02
!DELAST= 0.2854711340205540E-05
_OPTSTEP=  25.00000000000000    
_ORBITAL=  2100.200000000000    
_PI=  3.141592653589793    
_SEIG_MIN= 0.8336835738541977E-02
_SEWPROP=TRUE
_STATUS=  1.000000000000000    
_SYSTOT=  2.770000000000000    
_VERSION=  2024001.000000000    
_WALLTOT=  33.70000000000000    
_ZPE= 0.8095932753479355E-01
_DATE=01-Oct-24
_LASTORB=0
_OUTPUT=/home/lme/decomposing-vibrations/test_calculations/hydrogen_bonded_clusters/CH3OH_H2O_cluster/methanol_water.out
_PGROUP=C1
_TIME=21:17:56
_LIBMOL=/usr/local/molpro/molpro_2024.1.0_sockets/lib/
_VIGRDC=  0.000000000000000    
!VIBCNT=  0.000000000000000    
!SURFREC=  0.000000000000000    
!XSURFREC=  0.000000000000000    
!XPOLYREC=  0.000000000000000    
!ROTREC=  0.000000000000000    
!POLYREC=  0.000000000000000    
!DIPREC=  0.000000000000000    
!DIP4DREC=  0.000000000000000    
!DIPROT=  0.000000000000000    
!DIP4DROT=  0.000000000000000    
!PTREC=  0.000000000000000    
!PT4DREC=  0.000000000000000    
!VSCFREC=  0.000000000000000    
!VCIREC=  0.000000000000000    
!PVCIREC=  0.000000000000000    
!VMP2REC=  0.000000000000000    
!VMCSCFREC=  0.000000000000000    
!VMRCIREC=  0.000000000000000    
!VIBSTATEREC=  0.000000000000000    
!VIBSTATECNT=  0.000000000000000    
!VIBINFO=  0.000000000000000    
!GAREC=  0.000000000000000    
!SCFORB=  21002.00000000000    
!DEFCORE=  3.000000000000000    
!SCORE=  0.000000000000000    
!NEWMOL=  0.000000000000000    
!NEWSYM=  0.000000000000000    
_SLFILES=slscratch
_NGSSTO=  9.000000000000000    
_SIN=SIN
_COS=COS
_TAN=TAN
_ACOS=ACOS
_ASIN=ASIN
_ATAN=ATAN
_COSH=COSH
_SINH=SINH
_TANH=TANH
_ABS=ABS
_MOD=MOD
_ERF=ERF
_REFC=REFC
_ERFC=ERFC
_HYPOT=HYPOT
_J0=J0
_J1=J1
_JN=JN
_GAMMA=GAMMA
_LGAMMA=LGAMMA
_Y0=Y0
_Y1=Y1
_YN=YN
_EXP=EXP
_LOG=LOG
_LOG10=LOG10
_SQRT=SQRT
_INT=INT
_NINT=NINT
_MAX=MAX
_MIN=MIN
_COSMO=  0.000000000000000    
_COSMOIT=  0.000000000000000    
_COSMOES=  0.000000000000000    
_COSMOEDS=  0.000000000000000    
_COSMOEC=  0.000000000000000    
_COSMOEDCORR=  0.000000000000000    
_FEPSI=  1.000000000000000    
_SL_IsMM=  0.000000000000000    
_SL_NSYM=  1.000000000000000    
_SL_System_BitSw=  0.000000000000000    
_SL_Unique_atoms=  0.000000000000000    
_SL_GRAD=  0.000000000000000    
_SL_MAXUPD_Hess=  5.000000000000000    
_SL_N_PRINT_COD=  5.000000000000000    
_SL_PRINT_CODES=  0.000000000000000    
_SL_BasType=  0.000000000000000    
_SL_Energy_Pred=  0.000000000000000    
_SL_New_Coords=  0.000000000000000    
_SL_Total_Nuclea=  0.000000000000000    
_SL_Highest_Mltp=  0.000000000000000    
_SL_Ref_Geom=  0.000000000000000    
_SL_Symmetry_ope=  1.000000000000000    
_SL_agrad=  0.000000000000000    
_SL_GrdMax=  0.000000000000000    
_SL_GrdNorm=  0.000000000000000    
_SL_GrdRMS=  0.000000000000000    
_SL_Hss_Q=  0.000000000000000    
_SL_Hss_X=  0.000000000000000    
_SL_BMxOld=  0.000000000000000    
_SL_KtB=  0.000000000000000    
_SL_TROld=  0.000000000000000    
_SL_No_of_Intern=  0.000000000000000    
_SL_Hess=  0.000000000000000    
_SL_K=  0.000000000000000    
!LATTICE= -1.000000000000000    
!NEWLATTICE=  0.000000000000000    
!LATGRAD_VAR=FALSE
!SEW_LATTICE=  1.000000000000000    
!AIC_ONEEL=  0.000000000000000    
!LOCAL=  0.000000000000000    
!SAVEDOM= -1.000000000000000    
!RESTDOM= -1.000000000000000    
!SAVEDOM_HF= -1.000000000000000    
!RESTDOM_HF= -1.000000000000000    
!HESSREC=  5300.200000000000    
!FREQREC=  5400.200000000000    
!NMODREC=  5450.200000000000    
!GTASKS=  0.000000000000000    
!HTASKS=  0.000000000000000    
!SAVEDOM_EOM= -1.000000000000000    
!RESTDOM_EOM= -1.000000000000000    
!GRADSTATE= -1.000000000000000    
!DEBUG=  0.000000000000000    
!CFIT_CPHF=  0.000000000000000    
!RDOMAUX_CPHF=  0.000000000000000    
!THRAO_CPHF= 0.1000000000000000E-11
!THRMO_CPHF= 0.1000000000000000E-11
!THROV_CPHF= 0.1000000000000000E-13
!THRSW_CPHF= 0.1000000000000000E-11
!THRPROD_CPHF= 0.1000000000000000E-11
!THRAOPR_CPHF= 0.1000000000000000E-11
!CFIT_SCFGRD=  0.000000000000000    
!RDOMAUX_SCFGRD=  0.000000000000000    
!THRAO_SCFGRD= 0.1000000000000000E-11
!THRMO_SCFGRD= 0.1000000000000000E-11
!THROV_SCFGRD= 0.1000000000000000E-13
!THRSW_SCFGRD= 0.1000000000000000E-11
!THRPROD_SCFGRD= 0.1000000000000000E-11
!THRAOPR_SCFGRD= 0.1000000000000000E-11
!LOCFIT_SCF=  0.000000000000000    
!LOCFIT_MP2=  0.000000000000000    
_RIDOM=  0.000000000000000    
!CC2_METHOD=  0.000000000000000    
_BASIS2006=FALSE
_SVDDEL= -1.000000000000000    
_SVDDELA= -1.000000000000000    
_SVDDELP= -1.000000000000000    
_SVDDELF= -1.000000000000000    
_SVDDELS= -1.000000000000000    
_SVDDEL_ABS= -1.000000000000000    
_SVDDELA_ABS= -1.000000000000000    
_SVDDELP_ABS= -1.000000000000000    
_SVDDELF_ABS= -1.000000000000000    
_SVDDELS_ABS= -1.000000000000000    
_MAXBASIS=  0.000000000000000    
!OPT_CONICAL=  0.000000000000000    
!CLEARSP_JGRID=  0.000000000000000    
_GRDHYBR=  0.000000000000000    
_STATEGRAD=  1.000000000000000    
_4EXT_NDISKS=  1.000000000000000    
!EMBEDFLAG=  1.000000000000000    
!EMBED=FALSE
!EMBED_F12=FALSE
!EMBEDNUC=  0.000000000000000    
_EMBEDENERGY=  0.000000000000000    
!EMBED_DFC=FALSE
!NUM_VOIDS=  0.000000000000000    
_IBODY=  0.000000000000000    
_EMBE_CORR=  0.000000000000000    
!EMBED_PROJ=FALSE
!EMB_PROJ_ZMU=  1000000.000000000    
!CORRECTION_HF=  0.000000000000000    
!EMBED_AORB=  0.000000000000000    
!EMBED_NACORR=  0.000000000000000    
!EMBED_MP2=FALSE
!EMBED_TRUNC_PERTURBATION=FALSE
!EMBED_FROZEN=  0.000000000000000    
!EMBED_ACTIVE=  0.000000000000000    
_CHANGE_BASIS=FALSE
_RESTORE_BASIS=FALSE
_FIX_EMBED_GUESS=FALSE
_EMBED_SCF=FALSE
_NEOBAS=FALSE
_NEOOVE=FALSE
_PRINEO=FALSE
_HUZINAGA_T=FALSE
_HUZINAGA_F=FALSE
_HUZINAGA=FALSE
_HUZINAGA_CORRECT=FALSE
!FASTLATGRAD=  1.000000000000000    
!FASTVLAMBDA= -1.000000000000000    
!IFORCE= -1.000000000000000    
!USESYM= -1.000000000000000    
_SINDEX=  0.000000000000000    
_AVDOM_OSV=  0.000000000000000    
_AVDOM_PNO=  0.000000000000000    
_AVDOM_PNOCC=  0.000000000000000    
_AVDOM_TNO=  0.000000000000000    
_AVDOM_TNOIT=  0.000000000000000    
_AVDOM_PAO=  0.000000000000000    
_AVDOM_LMO=  0.000000000000000    
_CC2OSV_FLAG=  0.000000000000000    
_EOMCCSD_CONV=FALSE
_TMADC2_FLAG=FALSE
_PROPADC2_FLAG=FALSE
_LEN_VirQ=  0.000000000000000    
_GRDCC2LR_FLAG=FALSE
_GRDADC2_FLAG=FALSE
_RO_VGLOBAL=  0.000000000000000    
_OPT=FALSE
_FREQ=FALSE
_HESS=FALSE
_CMRCC_callName=EMPTY
_CMRCC_callCount=  0.000000000000000    
_GECCO_CIROOT=  1.000000000000000    
_SYM_CATION=  1.000000000000000    
_MON_A=FALSE
_MON_B=FALSE
_MAXGEOM=  100.0000000000000    
!MAXGEOM=  100.0000000000000    
_NCORE=  0.000000000000000    
_NLARGECORE=  0.000000000000000    
GX1=-0.5528072952398214E-01
GY1=-0.1410212178271947    
GZ1= -2.037474726457077    
GX2= 0.8116668011985014    
GY2= 0.4996357182610098E-01
GZ2= -2.348129137580143    
GX3=-0.1177795674761151    
GY3= 0.2899607241134741    
GZ3= -1.198504192726682    
GX4= 0.3250068712683300E-01
GY4= 0.6525566307119928    
GZ4= 0.7869980206543741    
GX5=-0.3501534558420454    
GY5=  1.317584533713336    
GZ5=  1.329828219569617    
GX6= 0.1523638228880770E-02
GY6=-0.5881254041398365    
GZ6=  1.448307230104115    
GX7= 0.3706652573178543    
GY7= -1.326667627405081    
GZ7= 0.7510214733064304    
GX8= 0.6381259788149337    
GY8=-0.5844399202405562    
GZ8=  2.328939564514807    
GX9= -1.009131002957623    
GY9=-0.8621287557523676    
GZ9=  1.738065123357600    
OX1=-0.1044654387698402    
OY1=-0.2664914794545912    
OZ1= -3.850269218850684    
HX2=  1.533827958716240    
HY2= 0.9441746695939915E-01
HZ2= -4.437320975280175    
HX3=-0.2225711256067384    
HY3= 0.5479463554726375    
HZ3= -2.264844683469131    
OX4= 0.6141739753186479E-01
OY4=  1.233153312854224    
OZ4=  1.487210719659342    
HX5=-0.6616941331327092    
HY5=  2.489873914760955    
HZ5=  2.513011127785280    
CX6= 0.2879258965594530E-02
CY6= -1.111395940759138    
CZ6=  2.736904009212132    
HX7= 0.7004558202446828    
HY7= -2.507038474202669    
HZ7=  1.419224898262097    
HX8=  1.205883332968971    
HY8= -1.104431385552781    
HZ8=  4.401057937738194    
HX9= -1.906981219458825    
HY9= -1.629187232536359    
HZ9=  3.284467069909769    
[Atoms] Angs
O     1    8        -0.0552807295       -0.1410212178       -2.0374747265
H     2    1         0.8116668012        0.0499635718       -2.3481291376
H     3    1        -0.1177795675        0.2899607241       -1.1985041927
O     4    8         0.0325006871        0.6525566307        0.7869980207
H     5    1        -0.3501534558        1.3175845337        1.3298282196
C     6    6         0.0015236382       -0.5881254041        1.4483072301
H     7    1         0.3706652573       -1.3266676274        0.7510214733
H     8    1         0.6381259788       -0.5844399202        2.3289395645
H     9    1        -1.0091310030       -0.8621287558        1.7380651234
[GTO]
   1 0
 s    6  1.00
  0.8588500000D+04  0.1895150083D-02
  0.1297230000D+04  0.1438590063D-01
  0.2992960000D+03  0.7073200310D-01
  0.8737710000D+02  0.2400010105D+00
  0.2567890000D+02  0.5947970261D+00
  0.3740040000D+01  0.2808020123D+00
 s    3  1.00
  0.4211750000D+02  0.1138890124D+00
  0.9628370000D+01  0.9208111006D+00
  0.2853320000D+01 -0.3274470358D-02
 s    1  1.00
  0.9056610000D+00  0.1000000000D+01
 s    1  1.00
  0.2556110000D+00  0.1000000000D+01
 p    3  1.00
  0.4211750000D+02  0.3651139738D-01
  0.9628370000D+01  0.2371529830D+00
  0.2853320000D+01  0.8197019412D+00
 p    1  1.00
  0.9056610000D+00  0.1000000000D+01
 p    1  1.00
  0.2556110000D+00  0.1000000000D+01
 d    1  1.00
  0.1292000000D+01  0.1000000000D+01
  
   2 0
 s    3  1.00
  0.3386500000D+02  0.2549381454D-01
  0.5094790000D+01  0.1903731086D+00
  0.1158790000D+01  0.8521614860D+00
 s    1  1.00
  0.3258400000D+00  0.1000000000D+01
 s    1  1.00
  0.1027410000D+00  0.1000000000D+01
 p    1  1.00
  0.7500000000D+00  0.1000000000D+01
  
   3 0
 s    3  1.00
  0.3386500000D+02  0.2549381454D-01
  0.5094790000D+01  0.1903731086D+00
  0.1158790000D+01  0.8521614860D+00
 s    1  1.00
  0.3258400000D+00  0.1000000000D+01
 s    1  1.00
  0.1027410000D+00  0.1000000000D+01
 p    1  1.00
  0.7500000000D+00  0.1000000000D+01
  
   4 0
 s    6  1.00
  0.8588500000D+04  0.1895150083D-02
  0.1297230000D+04  0.1438590063D-01
  0.2992960000D+03  0.7073200310D-01
  0.8737710000D+02  0.2400010105D+00
  0.2567890000D+02  0.5947970261D+00
  0.3740040000D+01  0.2808020123D+00
 s    3  1.00
  0.4211750000D+02  0.1138890124D+00
  0.9628370000D+01  0.9208111006D+00
  0.2853320000D+01 -0.3274470358D-02
 s    1  1.00
  0.9056610000D+00  0.1000000000D+01
 s    1  1.00
  0.2556110000D+00  0.1000000000D+01
 p    3  1.00
  0.4211750000D+02  0.3651139738D-01
  0.9628370000D+01  0.2371529830D+00
  0.2853320000D+01  0.8197019412D+00
 p    1  1.00
  0.9056610000D+00  0.1000000000D+01
 p    1  1.00
  0.2556110000D+00  0.1000000000D+01
 d    1  1.00
  0.1292000000D+01  0.1000000000D+01
  
   5 0
 s    3  1.00
  0.3386500000D+02  0.2549381454D-01
  0.5094790000D+01  0.1903731086D+00
  0.1158790000D+01  0.8521614860D+00
 s    1  1.00
  0.3258400000D+00  0.1000000000D+01
 s    1  1.00
  0.1027410000D+00  0.1000000000D+01
 p    1  1.00
  0.7500000000D+00  0.1000000000D+01
  
   6 0
 s    6  1.00
  0.4563240000D+04  0.1966650249D-02
  0.6820240000D+03  0.1523060193D-01
  0.1549730000D+03  0.7612690966D-01
  0.4445530000D+02  0.2608010331D+00
  0.1302900000D+02  0.6164620782D+00
  0.1827730000D+01  0.2210060280D+00
 s    3  1.00
  0.2096420000D+02  0.1146600807D+00
  0.4803310000D+01  0.9199996477D+00
  0.1459330000D+01 -0.3030682134D-02
 s    1  1.00
  0.4834560000D+00  0.1000000000D+01
 s    1  1.00
  0.1455850000D+00  0.1000000000D+01
 p    3  1.00
  0.2096420000D+02  0.4024869267D-01
  0.4803310000D+01  0.2375939567D+00
  0.1459330000D+01  0.8158538515D+00
 p    1  1.00
  0.4834560000D+00  0.1000000000D+01
 p    1  1.00
  0.1455850000D+00  0.1000000000D+01
 d    1  1.00
  0.6260000000D+00  0.1000000000D+01
  
   7 0
 s    3  1.00
  0.3386500000D+02  0.2549381454D-01
  0.5094790000D+01  0.1903731086D+00
  0.1158790000D+01  0.8521614860D+00
 s    1  1.00
  0.3258400000D+00  0.1000000000D+01
 s    1  1.00
  0.1027410000D+00  0.1000000000D+01
 p    1  1.00
  0.7500000000D+00  0.1000000000D+01
  
   8 0
 s    3  1.00
  0.3386500000D+02  0.2549381454D-01
  0.5094790000D+01  0.1903731086D+00
  0.1158790000D+01  0.8521614860D+00
 s    1  1.00
  0.3258400000D+00  0.1000000000D+01
 s    1  1.00
  0.1027410000D+00  0.1000000000D+01
 p    1  1.00
  0.7500000000D+00  0.1000000000D+01
  
   9 0
 s    3  1.00
  0.3386500000D+02  0.2549381454D-01
  0.5094790000D+01  0.1903731086D+00
  0.1158790000D+01  0.8521614860D+00
 s    1  1.00
  0.3258400000D+00  0.1000000000D+01
 s    1  1.00
  0.1027410000D+00  0.1000000000D+01
 p    1  1.00
  0.7500000000D+00  0.1000000000D+01


[MO]
 Sym=      1.1
 Ene=     -20.5646
 Spin= Alpha
 Occup=    2.000000
1 -0.000023475203127
2 -0.000026356010845
3 0.000052386310914
4 -0.000180330636638
5 0.000006648816059
6 -0.000003947607685
7 -0.000006680336361
8 -0.000024865013341
9 0.000013826797613
10 0.000026233163981
11 0.000014990424958
12 -0.000047348937580
13 -0.000095733491548
14 -0.000004355633764
15 0.000006289744716
16 -0.000001934110951
17 -0.000004745553677
18 -0.000000476657462
19 0.000002746669778
20 0.000005734109857
21 0.000026571955748
22 -0.000044481640247
23 -0.000012169006607
24 0.000000101482057
25 0.000009960003878
26 -0.000034639326363
27 0.000155157303685
28 0.000132839461661
29 0.000010682355751
30 0.000000933577793
31 0.000045197022854
32 0.55143729653459
33 0.47165965237990
34 0.005679892852511
35 -0.000774759826714
36 -0.000660754581483
37 -0.000227664034084
38 0.001503052638851
39 0.000237382164416
40 0.000073954234405
41 -0.000586467446507
42 -0.000067283486922
43 0.000226611756830
44 0.000151659751662
45 0.000114185489181
46 -0.000124441203653
47 0.000010255714472
48 0.000042167265596
49 0.000049363642249
50 0.000053432992328
51 0.000203157079611
52 0.000025103827135
53 0.000053335925561
54 0.000003177474116
55 -0.000069430629526
56 -0.000002047197371
57 -0.000002743731752
58 -0.000030244476486
59 0.000086195195888
60 0.000511097191011
61 0.000007433385443
62 0.000022403508146
63 -0.000020456006425
64 -0.000014997459229
65 0.000231449109147
66 -0.000087366515178
67 0.000072228202921
68 0.000091815210466
69 -0.000187665271527
70 -0.000052975330128
71 0.000087478564140
72 -0.000034503234011
73 -0.000005341524012
74 0.000016498726605
75 -0.000082277135894
76 0.000022234597461
77 -0.000106091063950
78 -0.000083889927156
79 -0.000005595818673
80 0.000008469847916
81 0.000010395535987
82 0.000011075239246
83 -0.000073779699827
84 -0.000001327174684
85 -0.000015403502849
86 -0.000016762769421
87 0.000018582425499
88 0.000006861489763
89 -0.000046182164945
90 -0.000000684697852
91 0.000009826468706
92 -0.000014566313446
93 0.000023574631473
 Sym=      2.1
 Ene=     -20.5118
 Spin= Alpha
 Occup=    2.000000
1 0.55142740662019
2 0.47167175761081
3 0.005609948033608
4 -0.000558835238845
5 0.001246862789965
6 0.000917440021814
7 0.000734073574061
8 -0.000443293480139
9 -0.000306603126162
10 -0.000230605107957
11 0.000080872150029
12 0.000018931897271
13 -0.000018796517852
14 -0.000042551613669
15 0.000067074107436
16 -0.000024522493767
17 -0.000033397717933
18 0.000069221280332
19 -0.000054362810556
20 0.000209036359026
21 0.000102237571731
22 0.000048055444314
23 -0.000058056255770
24 0.000004581190036
25 0.000050719278310
26 0.000198011224613
27 0.000104522578829
28 0.000232333627065
29 0.000036157996006
30 -0.000020557032954
31 -0.000052776538830
32 0.000024121916149
33 0.000019717477481
34 0.000006947624742
35 -0.000007124362071
36 -0.000000568477681
37 -0.000000806641922
38 0.000009220532434
39 0.000003437095387
40 0.000002579427042
41 -0.000028076141272
42 -0.000000895693500
43 -0.000023196494881
44 0.000096870235746
45 0.000000435299030
46 0.000000484303953
47 -0.000000919602983
48 0.000001565967554
49 -0.000001443754506
50 -0.000003353561650
51 -0.000006905226841
52 0.000015219063774
53 -0.000030596634915
54 -0.000001345892081
55 0.000004143890785
56 -0.000012946409890
57 0.000000057412608
58 -0.000000229617340
59 0.000005758192194
60 -0.000077868234945
61 -0.000001423835917
62 0.000003163744727
63 0.000003999916810
64 0.000006012213208
65 -0.000014482562560
66 -0.000016193736206
67 -0.000004197178503
68 -0.000020079002575
69 0.000023260220780
70 -0.000000234477764
71 -0.000004932392386
72 0.000005166870150
73 -0.000001882124122
74 -0.000003113137437
75 -0.000000711798284
76 0.000001560420608
77 -0.000007554098536
78 0.000012441237413
79 0.000001665564422
80 -0.000003944184667
81 0.000001947072120
82 0.000000367921091
83 0.000012238842722
84 0.000001931141808
85 -0.000001764139479
86 0.000002057346766
87 -0.000003651452665
88 -0.000002506357916
89 0.000020365066958
90 -0.000008406604146
91 0.000002725978671
92 0.000003205598583
93 -0.000001927079245
 Sym=      3.1
 Ene=     -11.2768
 Spin= Alpha
 Occup=    2.000000
1 0.000000060415638
2 0.000000383747424
3 -0.000000107427698
4 -0.000026476157733
5 -0.000000215838026
6 0.000002800952881
7 -0.000000065008992
8 -0.000000296092909
9 -0.000009264753123
10 -0.000002905891998
11 -0.000010276752757
12 0.000007158953320
13 -0.000017792610718
14 0.000001017224417
15 0.000001677124877
16 -0.000002694349294
17 -0.000000035858607
18 0.000000772658929
19 -0.000002864371700
20 -0.000003245457307
21 0.000025175633640
22 -0.000019239659444
23 -0.000002101412799
24 -0.000001352998930
25 0.000003220942565
26 0.000002442182793
27 0.000013238349890
28 -0.000008954224318
29 0.000001114027118
30 -0.000005471546828
31 -0.000016221734179
32 -0.000071644588034
33 -0.000129716673650
34 0.000300852057685
35 0.000378037708461
36 -0.000006460947440
37 -0.000087500974729
38 0.000054493819123
39 -0.000004791207028
40 -0.000508121197177
41 0.000258022337849
42 -0.000008339603489
43 -0.000143514549723
44 0.000079007818748
45 -0.000110140578814
46 0.000136958962844
47 -0.000026818384030
48 0.000022514587818
49 -0.000001786354154
50 -0.000184980245128
51 -0.000010502095978
52 0.000024829934336
53 -0.000029308131492
54 0.000021041515142
55 -0.000034605331942
56 -0.000029192862024
57 0.56343352953892
58 0.46655617589208
59 0.004173024984478
60 -0.001285804722094
61 -0.000015830197148
62 0.000981009232581
63 -0.000408525052673
64 0.000012225097699
65 -0.000777262681462
66 0.000308799200881
67 -0.000017198208923
68 0.000148705181112
69 -0.000026521209304
70 0.000136047240359
71 -0.000200096663181
72 0.000064049422822
73 -0.000022534232557
74 -0.000016815145223
75 0.000242866194837
76 0.000345852728130
77 0.000016150060400
78 0.000323074674750
79 0.000021588757144
80 0.000001444686885
81 -0.000054962942323
82 0.000349507627036
83 0.000072358841973
84 0.000260001513941
85 0.000016656401282
86 0.000040365494544
87 0.000003574845366
88 0.000349557510602
89 0.000063288790957
90 0.000261612712272
91 -0.000029607238324
92 0.000033027825735
93 -0.000009355817618
 Sym=      4.1
 Ene=      -1.3821
 Spin= Alpha
 Occup=    2.000000
1 -0.006875342900933
2 -0.011439208492240
3 0.031922617922606
4 0.023136148909435
5 0.001386731233691
6 0.001541683518896
7 0.002250328009385
8 0.002539331816068
9 0.002338777596784
10 0.003017589727435
11 0.001064121421188
12 0.001144146696198
13 0.002853833614602
14 0.000070455893703
15 -0.000406172618728
16 0.000335716725025
17 0.000235718649129
18 -0.000141429925440
19 0.000386103240148
20 0.005432573941363
21 0.003572625814368
22 0.000479468833760
23 -0.001291520348202
24 -0.000212720512320
25 0.000506705601717
26 0.009084675193193
27 0.005394076006279
28 0.001188348892023
29 0.000195287486402
30 -0.000723336595121
31 -0.001857568706789
32 -0.10980463217320
33 -0.18340290735771
34 0.51927202375481
35 0.39341775787806
36 -0.012868122352059
37 -0.005816119448866
38 0.030168783005062
39 -0.021845065909511
40 -0.012516283566597
41 0.052811477903677
42 -0.007608766788912
43 -0.020562890104717
44 0.020180616889549
45 -0.005969418245921
46 0.005349622485477
47 0.000619795760445
48 -0.002989898229749
49 -0.004018302114559
50 -0.000532888116542
51 0.091085638830531
52 0.075564885838176
53 -0.001557880574730
54 0.010547783477402
55 -0.020716844575497
56 -0.013082939985229
57 -0.036444848741137
58 -0.059495909421002
59 0.14783464436071
60 -0.000383439668114
61 0.000054579850010
62 0.035735983295899
63 -0.017525803325163
64 -0.000295839421121
65 0.071491679821110
66 -0.033109338008010
67 -0.001315439333168
68 -0.002086586927468
69 0.007213992553977
70 -0.014026748600129
71 0.020348018385539
72 -0.006321269785410
73 -0.000221659463887
74 -0.000075491462263
75 -0.018239160933569
76 0.014490407208673
77 0.031754369106064
78 0.000756055669806
79 -0.002825423101783
80 0.006225355761677
81 0.004912467505130
82 0.014380991986310
83 0.028372000369182
84 -0.000945768077649
85 -0.004454048935558
86 0.000848438543660
87 -0.006984631394994
88 0.014490160486482
89 0.029350118848113
90 -0.000664882218777
91 0.007431812988595
92 0.002886606178905
93 -0.002868036400877
 Sym=      5.1
 Ene=      -1.3200
 Spin= Alpha
 Occup=    2.000000
1 -0.11316617376911
2 -0.18898331305368
3 0.53548999851095
4 0.37901135653514
5 0.026828130642368
6 0.020281617025458
7 0.016960398148147
8 0.045079368123707
9 0.033526253115758
10 0.027950524406738
11 0.013610393035667
12 0.011751097196494
13 0.011204488882371
14 0.002652346617915
15 -0.004749299694920
16 0.002096953077005
17 0.003339640930538
18 -0.003559062260597
19 0.005030057546876
20 0.097060480755703
21 0.081309336981735
22 0.000333529041943
23 -0.024687583880805
24 -0.004185855299994
25 0.011256359663879
26 0.093795638094567
27 0.075643181410195
28 -0.009219410040984
29 0.004161546062759
30 -0.011582333957193
31 -0.025031366438560
32 0.007419970875544
33 0.012416457911131
34 -0.035298515538713
35 -0.027170291979687
36 0.000921618929377
37 0.000002746849517
38 -0.004604080883012
39 0.001540115097001
40 0.000201848409084
41 -0.006249331753158
42 0.000603997370539
43 0.002088519954213
44 -0.007111377584585
45 0.000469943259040
46 -0.000389916638979
47 -0.000080026620061
48 0.000208230476961
49 0.000359797412555
50 0.000161480650678
51 -0.007064268956612
52 -0.006919680659692
53 0.001511248600155
54 -0.000793355751683
55 0.001538444590597
56 0.001265227813835
57 0.002707287975653
58 0.004434693524567
59 -0.011216206432173
60 0.000250100958626
61 0.000038455392758
62 -0.002881064176003
63 0.000908347693181
64 -0.000061189897065
65 -0.005300232696844
66 0.002111335902481
67 -0.000778376809708
68 0.002235995700536
69 -0.001516959612062
70 0.000936493063968
71 -0.001404233520892
72 0.000467740456923
73 0.000058019960932
74 0.000019749118515
75 0.001170425583091
76 -0.000825986958966
77 -0.001496287107651
78 0.003511090325041
79 0.000060383021255
80 -0.000050298738046
81 -0.000614379703456
82 -0.001317500048457
83 -0.001824665652973
84 -0.000354764824983
85 0.000341788387624
86 -0.000163153745887
87 0.000523071918028
88 -0.001070402728284
89 -0.003011096251475
90 0.000145751545655
91 -0.000567188803015
92 -0.000366193243663
93 0.000319231228798
 Sym=      6.1
 Ene=      -0.9412
 Spin= Alpha
 Occup=    2.000000
1 -0.000165486350828
2 -0.000257637962995
3 0.000241276449354
4 0.004948775432746
5 0.000215977015961
6 -0.000990384024168
7 -0.000123855805748
8 0.000593393439256
9 -0.001297988826523
10 -0.000164653612426
11 0.000083984686726
12 -0.000780780703950
13 0.001808219850656
14 0.000041978046496
15 -0.000120188583737
16 0.000078210537241
17 -0.000012972712954
18 -0.000025204909825
19 -0.000084327400723
20 0.000230783750616
21 -0.000491285055892
22 0.001475556918165
23 0.000133581671262
24 -0.000060373195677
25 -0.000147858022646
26 -0.001117733817331
27 -0.003701913128163
28 -0.004657510972450
29 -0.000035468951588
30 -0.000161271497446
31 0.000209512507764
32 0.030124160012754
33 0.050637899662676
34 -0.14613727973274
35 -0.14087795247835
36 0.015950704819671
37 -0.093055936084618
38 0.008998036329501
39 0.025700760139540
40 -0.14832030203895
41 0.014378275025788
42 0.010244565159043
43 -0.079957274826734
44 0.015576440011245
45 -0.002882907818734
46 0.003964124242410
47 -0.001081216423676
48 0.004805611414403
49 0.002676804099503
50 -0.013085086429031
51 -0.076743580991597
52 -0.088409307307877
53 -0.012258636297867
54 -0.007394652996139
55 0.008765692135802
56 0.012471344815966
57 -0.094635268225052
58 -0.15720088104759
59 0.40844486582817
60 0.24147151099748
61 0.002402066634946
62 -0.025654527867419
63 0.006191166776211
64 0.003972764387836
65 -0.021512794510994
66 0.000241299269038
67 -0.002128688056649
68 -0.017053375079285
69 0.013015236044409
70 -0.000712534752982
71 -0.001432951444419
72 0.002145486197400
73 0.000307671694174
74 -0.001372126702687
75 -0.000381905653332
76 0.086089271616010
77 0.12154785939311
78 0.005956782249815
79 -0.006997607517683
80 0.012516456628090
81 0.014703197482524
82 0.081922590187152
83 0.11410400969215
84 0.003020897411722
85 -0.011617850970568
86 -0.001705905530008
87 -0.016025003837690
88 0.081670805030434
89 0.11326645898791
90 0.002708842845690
91 0.018799098433632
92 0.003590720336020
93 -0.004966082250329
 Sym=      7.1
 Ene=      -0.7192
 Spin= Alpha
 Occup=    2.000000
1 -0.003711079231872
2 -0.006292727283119
3 0.018852283265562
4 0.020149189231476
5 0.045243813336644
6 -0.015317541088406
7 -0.071617905643245
8 0.069939555489525
9 -0.023065262761505
10 -0.10909915161965
11 0.037611033011545
12 -0.014976243314664
13 -0.071017251701096
14 0.008171468204838
15 -0.001177031851264
16 -0.006994436353573
17 0.002074456952615
18 -0.003357526231357
19 -0.005585847774781
20 0.055477595466512
21 0.077798117460846
22 0.018739209489453
23 -0.011393509105165
24 -0.004294951247326
25 0.000038419805788
26 -0.062975198038519
27 -0.081620529343009
28 -0.027628128788362
29 0.001242527142830
30 0.006634745113232
31 0.009451142325996