
 Working directory              : /scratch/ddi/mpscr/molpro.IEgcMQOD8j/
 Global scratch directory       : /scratch/ddi/mpscr/molpro.IEgcMQOD8j/
 Wavefunction directory         : /home/ddi/storage_4/Kemal/C2H6/
 Main file repository           : /home/ddi/storage_4/Kemal/C2H6/

 id        : liedlgroup

 Nodes     nprocs
 ae2-c724    12
 GA implementation: MPI file
 GA implementation (serial work in mppx): MPI file

 Using customized tuning parameters: mindgm=1; mindgv=20; mindgc=4; mindgr=1; noblas=0; minvec=7
 default implementation of scratch files=sf  


 Variables initialized (1015), CPU time= 0.01 sec
 ***,c2h6 (ethane) vibrational spectrum
 memory,256,M
 
 orient,mass
 geometry={
 H1
 C1,H1,B1
 C2,C1,B2,H1,A1
 H2,C2,B1,C1,A1,H1,180.0
 H3,C2,B1,C1,A1,H1,45.0
 H4,C2,B1,C1,A1,H1,-45.0
 H5,C1,B1,C2,A1,H2,45.0
 H6,C1,B1,C2,A1,H2,-45.0
 }
 B1= 1.08617963 ANG
 B2= 1.00 ANG
 A1= 109.47122029 DEGREE
 
 mass,iso
 basis=vtz
 {hf
 start,atden}
 mp2
 optg
 frequencies,symm=auto,print=0
 put,molden,c2h6_molden.dat
 
 Commands initialized (818), CPU time= 0.01 sec, 672 directives.
 Default parameters read. Elapsed time= 0.15 sec

 Checking input...
 Passed
1


                                         ***  PROGRAM SYSTEM MOLPRO  ***
                                       Copyright, TTI GmbH Stuttgart, 2015
                                    Version 2022.1 linked Jan 25 2022 12:44:58


 **********************************************************************************************************************************
 LABEL *   c2h6 (ethane) vibrational spectrum                                            
  64 bit mpp version                                                                     DATE: 23-Feb-22          TIME: 13:34:23  
 **********************************************************************************************************************************

 SHA1:             f3d4322b9bdbeed63a35be676bd653804e8a9433
 **********************************************************************************************************************************

 Memory per process:       256 MW
 Total memory per node:   3072 MW

 GA preallocation disabled
 GA check disabled

 Variable memory set to 256.0 MW

 ZCENTRE=MASS

 SETTING B1             =         1.08617963  ANG                             
 SETTING B2             =         1.00000000  ANG                             
 SETTING A1             =       109.47122029  DEGREE                          


 Using masses of most abundant isotopes

 **********************************************************************************************************************************
 SETTING BASIS          =    VTZ


 Recomputing integrals since basis changed


 Using spherical harmonics

 Library entry H      S cc-pVTZ              selected for orbital group  1
 Library entry H      P cc-pVTZ              selected for orbital group  1
 Library entry H      D cc-pVTZ              selected for orbital group  1
 Library entry C      S cc-pVTZ              selected for orbital group  2
 Library entry C      P cc-pVTZ              selected for orbital group  2
 Library entry C      D cc-pVTZ              selected for orbital group  2
 Library entry C      F cc-pVTZ              selected for orbital group  2


 PROGRAM * SEWARD (Integral evaluation for generally contracted gaussian basis sets)     Author: Roland Lindh, 1990

 Geometry written to block  1 of record 700

 Orientation using atomic masses  
 Molecule type: Asymmetric top,     Order of principal axis = 2
 Symmetry elements: Z,XY
 Rotational constants:      39.8152119     80.7843791     34.3295619 GHz

 Point group  C2h 



 ATOMIC COORDINATES

 NR  ATOM    CHARGE       X              Y              Z

   1  H1      1.00    2.110071919   -1.395132585    0.000000000
   2  H2      1.00   -2.110071919    1.395132585    0.000000000
   3  C1      6.00    0.108912504   -0.938565007    0.000000000
   4  C2      6.00   -0.108912504    0.938565007    0.000000000
   5  H3      1.00    1.171488729    1.775929848   -1.368388018
   6  H4      1.00    1.171488729    1.775929848    1.368388018
   7  H5      1.00   -1.171488729   -1.775929848   -1.368388018
   8  H6      1.00   -1.171488729   -1.775929848    1.368388018

 Bond lengths in Bohr (Angstrom)

 1-3  2.052582023  2-4  2.052582023  3-4  1.889726125  3-7  2.052582023  3-8  2.052582023
     ( 1.086179630)     ( 1.086179630)     ( 1.000000000)     ( 1.086179630)     ( 1.086179630)

 4-5  2.052582023  4-6  2.052582023
     ( 1.086179630)     ( 1.086179630)

 Bond angles

  1-3-4  109.47122029   1-3-7  121.15990158   1-3-8  121.15990158   2-4-3  109.47122029

  2-4-5  121.15990158   2-4-6  121.15990158   3-4-5  109.47122029   3-4-6  109.47122029

  4-3-7  109.47122029   4-3-8  109.47122029   5-4-6   83.62063001   7-3-8   83.62063001

 NUCLEAR CHARGE:                   18
 NUMBER OF PRIMITIVE AOS:         196
 NUMBER OF SYMMETRY AOS:          180
 NUMBER OF CONTRACTIONS:          144   (   44Ag  +   28Au  +   44Bu  +   28Bg  )
 NUMBER OF INNER CORE ORBITALS:     0   (    0Ag  +    0Au  +    0Bu  +    0Bg  )
 NUMBER OF OUTER CORE ORBITALS:     2   (    1Ag  +    0Au  +    1Bu  +    0Bg  )
 NUMBER OF VALENCE ORBITALS:       14   (    5Ag  +    2Au  +    5Bu  +    2Bg  )


 NUCLEAR REPULSION ENERGY   51.79858719

 Eigenvalues of metric

         1 0.976E-03 0.114E-02 0.222E-02 0.302E-02 0.562E-02 0.692E-02 0.120E-01 0.137E-01
         2 0.175E-02 0.699E-02 0.188E-01 0.246E-01 0.366E-01 0.598E-01 0.732E-01 0.982E-01
         3 0.220E-03 0.646E-03 0.157E-02 0.175E-02 0.574E-02 0.701E-02 0.145E-01 0.170E-01
         4 0.100E-02 0.441E-02 0.108E-01 0.213E-01 0.424E-01 0.517E-01 0.681E-01 0.770E-01


 Contracted 2-electron integrals neglected if value below      1.0D-11
 AO integral compression algorithm  1   Integral accuracy      1.0D-11

     90.178 MB (compressed) written to integral file ( 57.4%)

     Node minimum: 4.719 MB, node maximum: 9.961 MB


 NUMBER OF SORTED TWO-ELECTRON INTEGRALS:    1153464.     BUFFER LENGTH:  32768
 NUMBER OF SEGMENTS:   1  SEGMENT LENGTH:    1153464      RECORD LENGTH: 524288

 Memory used in sort:       1.71 MW

 SORT1 READ    19689848. AND WROTE     1153464. INTEGRALS IN      4 RECORDS. CPU TIME:     0.25 SEC, REAL TIME:     0.28 SEC
 SORT2 READ    13957890. AND WROTE    13957892. INTEGRALS IN    324 RECORDS. CPU TIME:     0.04 SEC, REAL TIME:     0.07 SEC

 Node minimum:     1149538.  Node maximum:     1169184. integrals

 OPERATOR DM      FOR CENTER  0  COORDINATES:    0.000000    0.000000    0.000000


 **********************************************************************************************************************************
 DATASETS  * FILE   NREC   LENGTH (MB)   RECORD NAMES
              1      18       28.86       500      610      700      900      950      970     1000      129      960     1100   
                                          VAR    BASINP    GEOM    SYMINP    ZMAT    AOBASIS   BASIS     P2S    ABASIS      S 
                                         1400     1410     1200     1210     1080     1600     1650     1700   
                                           T        V       H0       H01     AOSYM     SMH    MOLCAS    OPER   

 PROGRAMS   *        TOTAL       INT
 CPU TIMES  *         0.94      0.74
 REAL TIME  *         1.34 SEC
 DISK USED  *        29.22 MB (local),      607.37 MB (total)
 GA USED    *         0.00 MB       (max)       0.00 MB       (current)
 **********************************************************************************************************************************


 Program * Restricted Hartree-Fock

 Orbital guess generated from atomic densities. Full valence occupancy:    6   2   6   2

 Initial occupancy:   4   1   3   1

 NELEC=   18   SYM=1   MS2= 0   THRE=1.0D-08   THRD=1.0D-06   THRG=1.0D-06  HFMA2=F  DIIS_START=2   DIIS_MAX=10   DIIS_INCORE=F

 Level shifts:    0.00 (CLOSED)    0.00 (OPEN)    0.30 (GAP_MIN)

 ITER           ETOT              DE          GRAD        DDIFF     DIIS  NEXP   TIME(IT)  TIME(TOT)  DIAG
   1      -78.68455655     -78.68455655     0.00D+00     0.13D+00     0     0       0.01      0.01    start
   2      -78.75487477      -0.07031822     0.18D-01     0.25D-01     1     0       0.00      0.01    diag
   3      -78.78133492      -0.02646016     0.96D-02     0.95D-02     2     0       0.00      0.01    diag
   4      -78.78223792      -0.00090299     0.12D-02     0.20D-02     3     0       0.01      0.02    diag
   5      -78.78226685      -0.00002893     0.18D-03     0.51D-03     4     0       0.00      0.02    diag
   6      -78.78226786      -0.00000102     0.30D-04     0.13D-03     5     0       0.00      0.02    diag
   7      -78.78226789      -0.00000003     0.52D-05     0.25D-04     6     0       0.00      0.02    diag
   8      -78.78226790      -0.00000000     0.95D-06     0.40D-05     7     0       0.00      0.02    fixocc
   9      -78.78226790      -0.00000000     0.12D-06     0.41D-06     8     0       0.01      0.03    diag
  10      -78.78226790      -0.00000000     0.20D-07     0.51D-07     0     0       0.00      0.03    diag/orth

 Final occupancy:   4   1   3   1

 !RHF STATE 1.1 Energy                -78.782267895897
  RHF One-electron energy            -206.747692561794
  RHF Two-electron energy              76.166837476019
  RHF Kinetic energy                   81.539853728518
  RHF Nuclear energy                   51.798587189879
  RHF Virial quotient                  -0.966181128534

 !RHF STATE 1.1 Dipole moment           0.00000000     0.00000000     0.00000000
 Dipole moment /Debye                   0.00000000     0.00000000     0.00000000

 Orbital energies:

           1.1          2.1          3.1          4.1          5.1          6.1
    -11.182620    -1.217839    -0.616659    -0.452309     0.141805     0.240077

           1.2          2.2          3.2
     -0.668664     0.187789     0.438364

           1.3          2.3          3.3          4.3          5.3
    -11.166930    -0.810111    -0.744033     0.151756     0.201216

           1.4          2.4          3.4
     -0.347845     0.246753     0.381624


 HOMO      1.4    -0.347845 =      -9.4654eV
 LUMO      5.1     0.141805 =       3.8587eV
 LUMO-HOMO         0.489651 =      13.3241eV

 Orbitals saved in record  2100.2


 **********************************************************************************************************************************
 DATASETS  * FILE   NREC   LENGTH (MB)   RECORD NAMES
              1      18       28.86       500      610      700      900      950      970     1000      129      960     1100   
                                          VAR    BASINP    GEOM    SYMINP    ZMAT    AOBASIS   BASIS     P2S    ABASIS      S 
                                         1400     1410     1200     1210     1080     1600     1650     1700   
                                           T        V       H0       H01     AOSYM     SMH    MOLCAS    OPER   

              2       4        0.52       700     1000      520     2100   
                                         GEOM     BASIS   MCVARS     RHF  

 PROGRAMS   *        TOTAL    HF-SCF       INT
 CPU TIMES  *         0.97      0.03      0.74
 REAL TIME  *         1.40 SEC
 DISK USED  *        29.80 MB (local),      614.37 MB (total)
 GA USED    *         0.00 MB       (max)       0.00 MB       (current)
 **********************************************************************************************************************************


 PROGRAM * MP2 (Closed-shell)     Authors: C. Hampel, H.-J. Werner, 1991, M. Deegan, P.J. Knowles, 1992


 Convergence thresholds:  THRVAR = 1.00D-12  THRDEN = 1.00D-08

 Number of core orbitals:           2 (   1   0   1   0 )
 Number of closed-shell orbitals:   7 (   3   1   2   1 )
 Number of external orbitals:     135 (  40  27  41  27 )

 Molecular orbitals read from record     2100.2  Type=RHF/CANONICAL  

 Number of N-1 electron functions:               7
 Number of N-2 electron functions:              28
 Number of singly external CSFs:               256
 Number of doubly external CSFs:            112921
 Total number of CSFs:                      113178

 Length of J-op  integral file:               0.00 MB
 Length of K-op  integral file:               0.37 MB

 Integral transformation finished. Total CPU:   0.02 sec, npass=  1  Memory used:   0.23 MW

 Memory needed for MP2:                      0.03 MW

 SCS-MP2 correlation energy:           -0.390426751713   (PS=  1.200000  PT=  0.333333)
 SCS-MP2 total energy:                -79.172694647610


  Reference energy                    -78.782267895897
  MP2 singlet pair energy              -0.260476109633
  MP2 triplet pair energy              -0.125124782390
  MP2 correlation energy               -0.385600892023

 !MP2 total energy                    -79.167868787920

 KEXT needed  1 integral passes. Memory used:   0.47 MW  CPU time:      0.02 sec

 CPHF start vector      0.2 not found

 Starting Coupled-perturbed Hartree-Fock, convergence threshold= 1.0D-06

 ITER   MIC  DIIS      VAR         VARC       CPU
   1     0     1    0.38D-01    0.17D-02     0.00
   2     5     2    0.40D-03    0.34D-03     0.00
   3     2     3    0.66D-04    0.52D-05     0.01
   4     4     4    0.20D-05    0.55D-06     0.01
   5     1     5    0.84D-07    0.14D-07     0.01

 CPHF convergence reached in  5 macroiterations and   12 microiterations.   Accuracy: 8.4476D-08

 CPHF solution written to record  4100.2

 Dipole moments (unrelaxed):            0.00000000     0.00000000     0.00000000
 Orbital relaxation contribution:      -0.00000000    -0.00000000    -0.00000000
 !MP2 STATE 1.1 Dipole moment           0.00000000     0.00000000     0.00000000
 Dipole moment /Debye                   0.00000000     0.00000000     0.00000000

 CPU-time for density and lagrangian:                  0.01 sec
 CPU-time for coupled-perturbed hartree-fock:          0.01 sec

 MP2 gradient info saved on record         5200.1


 **********************************************************************************************************************************
 DATASETS  * FILE   NREC   LENGTH (MB)   RECORD NAMES
              1      20       31.75       500      610      700      900      950      970     1000      129      960     1100   
                                          VAR    BASINP    GEOM    SYMINP    ZMAT    AOBASIS   BASIS     P2S    ABASIS      S 
                                         1400     1410     1200     1210     1080     1600     1650     1700     1380     5200   
                                           T        V       H0       H01     AOSYM     SMH    MOLCAS    OPER     JKOP      MP2  

              2       5        0.78       700     1000      520     2100     4100   
                                         GEOM     BASIS   MCVARS     RHF     CPHF   

 PROGRAMS   *        TOTAL       MP2    HF-SCF       INT
 CPU TIMES  *         1.07      0.09      0.03      0.74
 REAL TIME  *         1.53 SEC
 DISK USED  *        32.61 MB (local),      648.10 MB (total)
 SF USED    *         7.36 MB
 GA USED    *         0.00 MB       (max)       0.00 MB       (current)
 **********************************************************************************************************************************


 PROGRAM * OPT (Geometry optimization)     Authors: F. Eckert and H.-J. Werner


 BFGS update of hessian

 *** Long output written to logfile /media/storage_4_240T/ddi/Kemal/C2H6/c2h6.log ***


 Geometry optimization using default procedure for command MP2

 Geometry written to block  1 of record 700

 Making model hessian for Z-matrix coordinates

 Entering Rational Function Geometry Optimization

 ITER.   ENERGY(OLD)    ENERGY(NEW)      DE          GRADMAX     GRADNORM    GRADRMS     STEPMAX     STEPLEN     STEPRMS   CPU-time
   1   -79.16786879   -79.44908658    -0.28121779  1.35672467  1.41788391  0.81861566  0.29877661  0.30000000  0.10000000      1.49
   2   -79.44908658   -79.53826245    -0.08917588  0.56887321  0.60757572  0.35078400  0.20345671  0.20667273  0.06889091      3.02
   3   -79.53826245   -79.57653402    -0.03827156  0.28192413  0.29069607  0.16783346  0.19482274  0.19524430  0.06508143      4.56
   4   -79.57653402   -79.58836489    -0.01183087  0.11975607  0.11980736  0.06917081  0.14640806  0.14700094  0.04900031      6.03
   5   -79.58836489   -79.59106699    -0.00270210  0.04532002  0.04670884  0.02696736  0.09170746  0.09289421  0.03096474      7.57
   6   -79.59106699   -79.59133810    -0.00027112  0.01269082  0.01327135  0.00766222  0.03570316  0.03617752  0.01205917      9.20
   7   -79.59133810   -79.59134566    -0.00000756  0.00206656  0.00210643  0.00121615  0.00680111  0.00686554  0.00228851     10.72
   8   -79.59134566   -79.59134569    -0.00000003  0.00012606  0.00013951  0.00008055  0.00041796  0.00041941  0.00013980     12.28

 END OF GEOMETRY OPTIMIZATION.

 Optimized variables
 B1=                  1.09344776 ANG
 B2=                  1.51758495 ANG
 A1=                111.71199254 DEGREE

 **********************************************************************************************************************************

 Geometry written to block  1 of record 700

 Recomputing wavefunction for reoriented structure

 Current geometry (xyz format, in Angstrom)

    8
 MP2/VTZ  ENERGY=-79.59134569
 H          1.0783737505       -1.1056149905        0.0000000000
 C          0.0417722502       -0.7576418023        0.0000000000
 C         -0.0417722502        0.7576418023        0.0000000000
 H         -1.0783737505        1.1056149905        0.0000000000
 H          0.6532005847        1.2010845859       -0.7183308894
 H          0.6532005847        1.2010845859        0.7183308894
 H         -0.6532005847       -1.2010845859       -0.7183308894
 H         -0.6532005847       -1.2010845859        0.7183308894

 **********************************************************************************************************************************


 **********************************************************************************************************************************
 DATASETS  * FILE   NREC   LENGTH (MB)   RECORD NAMES
              1      21       32.86       500      610      700      900      950      970     1000      129      960     1100   
                                          VAR    BASINP    GEOM    SYMINP    ZMAT    AOBASIS   BASIS     P2S    ABASIS      S 
                                         1400     1410     1200     1210     1080     1600     1650     1700     1380     5200   
                                           T        V       H0       H01     AOSYM     SMH    MOLCAS    OPER     JKOP      MP2  
                                         5201   
                                          MP2  

              2       6        0.92       700     1000      520     2100     4100     9001   
                                         GEOM     BASIS   MCVARS     RHF     CPHF    DEN_MP2    

 PROGRAMS   *        TOTAL      OPTG       MP2    HF-SCF       INT
 CPU TIMES  *        13.49     12.41      0.09      0.03      0.74
 REAL TIME  *        15.15 SEC
 DISK USED  *        33.85 MB (local),      663.09 MB (total)
 SF USED    *         7.50 MB
 GA USED    *         0.00 MB       (max)       0.00 MB       (current)
 **********************************************************************************************************************************


 PROGRAM * HESSIAN

 Computing numerical hessian using default procedure for command MP2

 Symmetry elements for unique displacements: Z  XY 

 Using AUTO symmetry option

 Running default procedure: HF-SCF000  MP2


 Numerically approximating hessian using central gradient differences

 Task list generated. Total number of displacements:     16

 All  16 tasks completed.  CPU=     32.27 sec, Elapsed=     33.36 sec.

 MP2 hessian saved to record  5300.2

 PROGRAM * FREQUENCIES (Calculation of harmonic vibrational spectra for MP2)


 Permanent Dipole Moment [debye]
   1-  3    0.000000    0.000000    0.000000

 Dipole Moment Norm    0.0000000 [debye]

 Dipole Moment Derivatives [debye/ang]
              1             2             3             4             5             6             7             8
    1    -0.2482394     0.1135813     0.0000000     0.2227371     0.0221025     0.0000000     0.2227371     0.0221025
    2     0.3787663    -0.0280925     0.0000000     0.0472629     0.2772436     0.0000000     0.0472629     0.2772436
    3     0.0000000     0.0000000     0.4490871     0.0000000     0.0000000     0.0710484     0.0000000     0.0000000
              9            10            11            12            13            14            15            16
    1     0.0000000    -0.2482394     0.1135813     0.0000000     0.0125824    -0.0679026     0.4599445     0.0125824
    2     0.0000000     0.3787663    -0.0280925     0.0000000    -0.2130509    -0.1245142     0.4744062    -0.2130509
    3     0.0710484     0.0000000     0.0000000     0.4490871     0.6387637     0.3748399    -0.2601153    -0.6387637
             17            18            19            20            21            22            23            24
    1    -0.0679026    -0.4599445     0.0125824    -0.0679026    -0.4599445     0.0125824    -0.0679026     0.4599445
    2    -0.1245142    -0.4744062    -0.2130509    -0.1245142    -0.4744062    -0.2130509    -0.1245142     0.4744062
    3    -0.3748399    -0.2601153    -0.6387637    -0.3748399    -0.2601153     0.6387637     0.3748399    -0.2601153

 Projecting out rotations and translations

 Force Constants (Second Derivatives of the Energy) in [a.u.]
                             H1X1        H1Y1        H1Z1        C1X2        C1Y2    
           H1X1          0.3091691
           H1Y1         -0.0913817   0.0865275
           H1Z1          0.0000000   0.0000000   0.0380128
           C1X2         -0.2927435   0.0804190  -0.0000000   0.6742963
           C1Y2          0.0821869  -0.0779001  -0.0000000   0.0140765   0.5001582
           C1Z2         -0.0000000  -0.0000000  -0.0498433   0.0000000   0.0000000
           C2X3         -0.0019463   0.0335743  -0.0000000  -0.0955285   0.0131230
           C2Y3         -0.0002706  -0.0103369   0.0000000   0.0131230  -0.2214450
           C2Z3         -0.0000000  -0.0000000   0.0038899  -0.0000000   0.0000000
           H2X4          0.0010045  -0.0001007   0.0000000  -0.0019463  -0.0002706
           H2Y4         -0.0001007  -0.0061000   0.0000000   0.0335743  -0.0103369
           H2Z4         -0.0000000  -0.0000000   0.0034972   0.0000000  -0.0000000
           H3X5          0.0000537   0.0001344   0.0019264   0.0015686   0.0014182
           H3Y5         -0.0001136   0.0004400  -0.0007747  -0.0213514  -0.0136717
           H3Z5         -0.0002371   0.0006823  -0.0029103  -0.0018411  -0.0024538
           H4X6          0.0000537   0.0001344  -0.0019264   0.0015686   0.0014182
           H4Y6         -0.0001136   0.0004400   0.0007747  -0.0213514  -0.0136717
           H4Z6          0.0002371  -0.0006823  -0.0029103   0.0018411   0.0024538
           H5X7         -0.0077956  -0.0113898  -0.0189587  -0.1436076  -0.0559761
           H5Y7          0.0048966   0.0034648   0.0124471  -0.0492451  -0.0815664
           H5Z7          0.0053529   0.0037615   0.0051320  -0.1193986  -0.0769825
           H6X8         -0.0077956  -0.0113898   0.0189587  -0.1436076  -0.0559761
           H6Y8          0.0048966   0.0034648  -0.0124471  -0.0492451  -0.0815664
           H6Z8         -0.0053529  -0.0037615   0.0051320   0.1193986   0.0769825
                             C1Z2        C2X3        C2Y3        C2Z3        H2X4    
           C1Z2          0.4226602
           C2X3         -0.0000000   0.6742963
           C2Y3         -0.0000000   0.0140765   0.5001582
           C2Z3         -0.0576568  -0.0000000  -0.0000000   0.4226602
           H2X4          0.0000000  -0.2927435   0.0821869   0.0000000   0.3091691
           H2Y4          0.0000000   0.0804190  -0.0779001   0.0000000  -0.0913817
           H2Z4          0.0038899   0.0000000  -0.0000000  -0.0498433  -0.0000000
           H3X5         -0.0047879  -0.1436076  -0.0559761   0.1139837  -0.0077956
           H3Y5          0.0222639  -0.0492451  -0.0815664   0.0771906   0.0048966
           H3Z5          0.0000427   0.1193986   0.0769825  -0.1595677  -0.0053529
           H4X6          0.0047879  -0.1436076  -0.0559761  -0.1139837  -0.0077956
           H4Y6         -0.0222639  -0.0492451  -0.0815664  -0.0771906   0.0048966
           H4Z6          0.0000427  -0.1193986  -0.0769825  -0.1595677   0.0053529
           H5X7         -0.1139837   0.0015686   0.0014182   0.0047879   0.0000537
           H5Y7         -0.0771906  -0.0213514  -0.0136717  -0.0222639  -0.0001136
           H5Z7         -0.1595677   0.0018411   0.0024538   0.0000427   0.0002371
           H6X8          0.1139837   0.0015686   0.0014182  -0.0047879   0.0000537
           H6Y8          0.0771906  -0.0213514  -0.0136717   0.0222639  -0.0001136
           H6Z8         -0.1595677  -0.0018411  -0.0024538   0.0000427  -0.0002371
                             H2Y4        H2Z4        H3X5        H3Y5        H3Z5    
           H2Y4          0.0865275
           H2Z4          0.0000000   0.0380128
           H3X5         -0.0113898   0.0189587   0.1455286
           H3Y5          0.0034648  -0.0124471   0.0640931   0.0905843
           H3Z5         -0.0037615   0.0051320  -0.1195631  -0.0778658   0.1979604
           H4X6         -0.0113898  -0.0189587   0.0030311   0.0020891   0.0090032
           H4Y6          0.0034648   0.0124471   0.0020891   0.0046577   0.0066428
           H4Z6          0.0037615   0.0051320  -0.0090032  -0.0066428  -0.0479139
           H5X7          0.0001344  -0.0019264   0.0033659  -0.0007115   0.0000536
           H5Y7          0.0004400   0.0007747  -0.0007115   0.0043088   0.0007488
           H5Z7         -0.0006823  -0.0029103  -0.0000536  -0.0007488   0.0041158
           H6X8          0.0001344   0.0019264  -0.0021447   0.0003426  -0.0014611
           H6Y8          0.0004400  -0.0007747   0.0003426  -0.0082175  -0.0009752
           H6Z8          0.0006823  -0.0029103  -0.0014611  -0.0009752   0.0031410
                             H4X6        H4Y6        H4Z6        H5X7        H5Y7    
           H4X6          0.1455286
           H4Y6          0.0640931   0.0905843
           H4Z6          0.1195631   0.0778658   0.1979604
           H5X7         -0.0021447   0.0003426   0.0014611   0.1455286
           H5Y7          0.0003426  -0.0082175   0.0009752   0.0640931   0.0905843
           H5Z7          0.0014611   0.0009752   0.0031410   0.1195631   0.0778658
           H6X8          0.0033659  -0.0007115  -0.0000536   0.0030311   0.0020891
           H6Y8         -0.0007115   0.0043088  -0.0007488   0.0020891   0.0046577
           H6Z8          0.0000536   0.0007488   0.0041158   0.0090032   0.0066428
                             H5Z7        H6X8        H6Y8        H6Z8    
           H5Z7          0.1979604
           H6X8         -0.0090032   0.1455286
           H6Y8         -0.0066428   0.0640931   0.0905843
           H6Z8         -0.0479139  -0.1195631  -0.0778658   0.1979604


 Atomic Masses
   1-  8    1.007825   12.000000   12.000000    1.007825    1.007825    1.007825    1.007825    1.007825

 Mass weighted Second Derivative Matrix
                             H1X1        H1Y1        H1Z1        C1X2        C1Y2    
           H1X1          0.3067686
           H1Y1         -0.0906722   0.0858557
           H1Z1          0.0000000   0.0000000   0.0377176
           C1X2         -0.0841791   0.0231247  -0.0000000   0.0561914
           C1Y2          0.0236330  -0.0224003  -0.0000000   0.0011730   0.0416799
           C1Z2         -0.0000000  -0.0000000  -0.0143326   0.0000000   0.0000000
           C2X3         -0.0005597   0.0096544  -0.0000000  -0.0079607   0.0010936
           C2Y3         -0.0000778  -0.0029724   0.0000000   0.0010936  -0.0184538
           C2Z3         -0.0000000  -0.0000000   0.0011185  -0.0000000   0.0000000
           H2X4          0.0009967  -0.0000999   0.0000000  -0.0005597  -0.0000778
           H2Y4         -0.0000999  -0.0060527   0.0000000   0.0096544  -0.0029724
           H2Z4         -0.0000000  -0.0000000   0.0034701   0.0000000  -0.0000000
           H3X5          0.0000533   0.0001333   0.0019114   0.0004511   0.0004078
           H3Y5         -0.0001127   0.0004365  -0.0007687  -0.0061396  -0.0039313
           H3Z5         -0.0002353   0.0006770  -0.0028877  -0.0005294  -0.0007056
           H4X6          0.0000533   0.0001333  -0.0019114   0.0004511   0.0004078
           H4Y6         -0.0001127   0.0004365   0.0007687  -0.0061396  -0.0039313
           H4Z6          0.0002353  -0.0006770  -0.0028877   0.0005294   0.0007056
           H5X7         -0.0077351  -0.0113014  -0.0188115  -0.0412947  -0.0160961
           H5Y7          0.0048586   0.0034379   0.0123504  -0.0141605  -0.0234546
           H5Z7          0.0053114   0.0037323   0.0050922  -0.0343333  -0.0221365
           H6X8         -0.0077351  -0.0113014   0.0188115  -0.0412947  -0.0160961
           H6Y8          0.0048586   0.0034379  -0.0123504  -0.0141605  -0.0234546
           H6Z8         -0.0053114  -0.0037323   0.0050922   0.0343333   0.0221365
                             C1Z2        C2X3        C2Y3        C2Z3        H2X4    
           C1Z2          0.0352217
           C2X3         -0.0000000   0.0561914
           C2Y3         -0.0000000   0.0011730   0.0416799
           C2Z3         -0.0048047  -0.0000000  -0.0000000   0.0352217
           H2X4          0.0000000  -0.0841791   0.0236330   0.0000000   0.3067686
           H2Y4          0.0000000   0.0231247  -0.0224003   0.0000000  -0.0906722
           H2Z4          0.0011185   0.0000000  -0.0000000  -0.0143326  -0.0000000
           H3X5         -0.0013768  -0.0412947  -0.0160961   0.0327763  -0.0077351
           H3Y5          0.0064020  -0.0141605  -0.0234546   0.0221963   0.0048586
           H3Z5          0.0000123   0.0343333   0.0221365  -0.0458840  -0.0053114
           H4X6          0.0013768  -0.0412947  -0.0160961  -0.0327763  -0.0077351
           H4Y6         -0.0064020  -0.0141605  -0.0234546  -0.0221963   0.0048586
           H4Z6          0.0000123  -0.0343333  -0.0221365  -0.0458840   0.0053114
           H5X7         -0.0327763   0.0004511   0.0004078   0.0013768   0.0000533
           H5Y7         -0.0221963  -0.0061396  -0.0039313  -0.0064020  -0.0001127
           H5Z7         -0.0458840   0.0005294   0.0007056   0.0000123   0.0002353
           H6X8          0.0327763   0.0004511   0.0004078  -0.0013768   0.0000533
           H6Y8          0.0221963  -0.0061396  -0.0039313   0.0064020  -0.0001127
           H6Z8         -0.0458840  -0.0005294  -0.0007056   0.0000123  -0.0002353
                             H2Y4        H2Z4        H3X5        H3Y5        H3Z5    
           H2Y4          0.0858557
           H2Z4          0.0000000   0.0377176
           H3X5         -0.0113014   0.0188115   0.1443987
           H3Y5          0.0034379  -0.0123504   0.0635955   0.0898810
           H3Z5         -0.0037323   0.0050922  -0.1186348  -0.0772613   0.1964234
           H4X6         -0.0113014  -0.0188115   0.0030076   0.0020729   0.0089333
           H4Y6          0.0034379   0.0123504   0.0020729   0.0046216   0.0065912
           H4Z6          0.0037323   0.0050922  -0.0089333  -0.0065912  -0.0475419
           H5X7          0.0001333  -0.0019114   0.0033397  -0.0007060   0.0000532
           H5Y7          0.0004365   0.0007687  -0.0007060   0.0042753   0.0007430
           H5Z7         -0.0006770  -0.0028877  -0.0000532  -0.0007430   0.0040838
           H6X8          0.0001333   0.0019114  -0.0021280   0.0003400  -0.0014498
           H6Y8          0.0004365  -0.0007687   0.0003400  -0.0081537  -0.0009676
           H6Z8          0.0006770  -0.0028877  -0.0014498  -0.0009676   0.0031166
                             H4X6        H4Y6        H4Z6        H5X7        H5Y7    
           H4X6          0.1443987
           H4Y6          0.0635955   0.0898810
           H4Z6          0.1186348   0.0772613   0.1964234
           H5X7         -0.0021280   0.0003400   0.0014498   0.1443987
           H5Y7          0.0003400  -0.0081537   0.0009676   0.0635955   0.0898810
           H5Z7          0.0014498   0.0009676   0.0031166   0.1186348   0.0772613
           H6X8          0.0033397  -0.0007060  -0.0000532   0.0030076   0.0020729
           H6Y8         -0.0007060   0.0042753  -0.0007430   0.0020729   0.0046216
           H6Z8          0.0000532   0.0007430   0.0040838   0.0089333   0.0065912
                             H5Z7        H6X8        H6Y8        H6Z8    
           H5Z7          0.1964234
           H6X8         -0.0089333   0.1443987
           H6Y8         -0.0065912   0.0635955   0.0898810
           H6Z8         -0.0475419  -0.1186348  -0.0772613   0.1964234


 Mass Weighted 2nd Derivative Matrix Eigenvalues
   1- 10    0.000000    0.000000    0.000000    0.000000    0.000000    0.000000    0.001358    0.013752    0.031680    0.040820
  11- 20    0.044973    0.060841    0.074554    0.076048    0.076484    0.077472    0.092268    0.094152    0.339482    0.344847
  21- 24    0.351273    0.351378    0.386915    0.391385

 Mass Weighted 2nd Derivative Matrix Eigenvectors
              1             2             3             4             5             6             7             8
    1     0.2839563     0.0000591    -0.0000134    -0.0000180     0.0000181     0.0001325     0.0000000     0.0000000
    2     0.1616906    -0.0705577     0.0250037    -0.1065046    -0.1042616     0.1561351     0.0000000     0.0000000
    3    -0.0001728     0.4645003     0.1250527    -0.1255072     0.0674291     0.1494757     0.4208126     0.1697402
    4     0.7997174     0.0100501    -0.0084733     0.1055356     0.1073405     0.0169736     0.0000000     0.0000000
    5     0.0213921    -0.2141368     0.0611739    -0.0529354    -0.0401898     0.5879656     0.0000000     0.0000000
    6    -0.0002196     0.3787034    -0.2471725    -0.5214554     0.4361863     0.1465159     0.0074435    -0.1839350
    7     0.0154113     0.0529262    -0.0451706     0.5653709     0.5744936     0.0888953     0.0000000     0.0000000
    8    -0.0218502    -0.2117729     0.0591506    -0.0275826    -0.0144335     0.5919309     0.0000000     0.0000000
    9     0.0001141    -0.3056650     0.5015768    -0.3512057     0.4387762    -0.1651404     0.0074435    -0.1839350
   10    -0.0477300     0.0181916    -0.0155328     0.1944483     0.1975791     0.0305485     0.0000000     0.0000000
   11    -0.1618233    -0.0528720     0.0098666     0.0831702     0.0884316     0.1858017     0.0000000     0.0000000
   12     0.0001422    -0.4433336    -0.0513257    -0.1273920     0.1861371    -0.1548731     0.4208126     0.1697402
   13    -0.0621119     0.2372844     0.1578444     0.2289267     0.1645894     0.0927742    -0.3220071     0.0584538
   14     0.0979567    -0.1490552     0.1344810    -0.0442853    -0.0682081     0.1225256     0.0888940     0.4015177
   15    -0.0000001     0.0720180     0.3831709    -0.0612194     0.0857956    -0.0132846    -0.2232487     0.2324754
   16    -0.0619892    -0.1993355    -0.1902501     0.1767620     0.2476281    -0.0290507     0.3220071    -0.0584538
   17     0.0978718     0.0149129    -0.0904417    -0.0939402    -0.0643414     0.2014413    -0.0888940    -0.4015177
   18    -0.0000001     0.0720180     0.3831709    -0.0612194     0.0857956    -0.0132846    -0.2232487     0.2324754
   19     0.2982154     0.2175862     0.1747039     0.0176683    -0.0500309     0.0597318     0.3220071    -0.0584538
   20    -0.0980045    -0.1383425     0.1253120     0.0706059     0.0485115     0.1404955    -0.0888940    -0.4015177
   21    -0.0000305    -0.0508513    -0.3094440    -0.1916798     0.1677706     0.0078872    -0.2232487     0.2324754
   22     0.2983382    -0.2190338    -0.1733905    -0.0344964     0.0330078    -0.0620931    -0.3220071     0.0584538
   23    -0.0980895     0.0256256    -0.0996106     0.0209510     0.0523782     0.2194112     0.0888940     0.4015177
   24    -0.0000305    -0.0508513    -0.3094440    -0.1916798     0.1677706     0.0078872    -0.2232487     0.2324754
              9            10            11            12            13            14            15            16
    1     0.1405192     0.0091625     0.0000000     0.0503920     0.1540183     0.0000000     0.0000000    -0.1644109
    2     0.5040656     0.2188949     0.0000000     0.4549044     0.3430098     0.0000000     0.0000000    -0.2907194
    3     0.0000000     0.0000000    -0.2906807     0.0000000     0.0000000     0.4182689     0.5103509     0.0000000
    4    -0.1527906    -0.0108570     0.0000000    -0.4129014     0.0161220     0.0000000     0.0000000    -0.0773636
    5    -0.0028591     0.6017328     0.0000000    -0.0391093    -0.2930412     0.0000000     0.0000000     0.3444461
    6     0.0000000     0.0000000     0.4154770     0.0000000     0.0000000    -0.0569615    -0.1755577     0.0000000
    7    -0.1527906     0.0108570     0.0000000     0.4129014     0.0161220     0.0000000     0.0000000     0.0773636
    8    -0.0028591    -0.6017328     0.0000000     0.0391093    -0.2930412     0.0000000     0.0000000    -0.3444461
    9     0.0000000     0.0000000    -0.4154770     0.0000000     0.0000000     0.0569615    -0.1755577     0.0000000
   10     0.1405192    -0.0091625     0.0000000    -0.0503920     0.1540183     0.0000000     0.0000000     0.1644109
   11     0.5040656    -0.2188949     0.0000000    -0.4549044     0.3430098     0.0000000     0.0000000     0.2907194
   12     0.0000000     0.0000000     0.2906807     0.0000000     0.0000000    -0.4182689     0.5103509     0.0000000
   13     0.1933522     0.0117619     0.0602155    -0.1223483    -0.1048246    -0.2653530     0.2402013    -0.0906031
   14    -0.2471000    -0.2114792     0.3185309     0.1874840     0.3340831     0.2970967    -0.2106826     0.3293334
   15     0.0544614    -0.0062182     0.1278826    -0.0955688     0.1168122    -0.0471656     0.0477167     0.1234590
   16     0.1933522     0.0117619    -0.0602155    -0.1223483    -0.1048246     0.2653530    -0.2402013    -0.0906031
   17    -0.2471000    -0.2114792    -0.3185309     0.1874840     0.3340831    -0.2970967     0.2106826     0.3293334
   18    -0.0544614     0.0062182     0.1278826     0.0955688    -0.1168122    -0.0471656     0.0477167    -0.1234590
   19     0.1933522    -0.0117619     0.0602155     0.1223483    -0.1048246    -0.2653530    -0.2402013     0.0906031
   20    -0.2471000     0.2114792     0.3185309    -0.1874840     0.3340831     0.2970967     0.2106826    -0.3293334
   21    -0.0544614    -0.0062182    -0.1278826    -0.0955688    -0.1168122     0.0471656     0.0477167     0.1234590
   22     0.1933522    -0.0117619    -0.0602155     0.1223483    -0.1048246     0.2653530     0.2402013     0.0906031
   23    -0.2471000     0.2114792    -0.3185309    -0.1874840     0.3340831    -0.2970967    -0.2106826    -0.3293334
   24     0.0544614     0.0062182    -0.1278826     0.0955688     0.1168122     0.0471656     0.0477167    -0.1234590
             17            18            19            20            21            22            23            24
    1    -0.1112514     0.1091176     0.0000000     0.0000000     0.5201873     0.5089179     0.3751730     0.3893800
    2    -0.2059147     0.2525805     0.0000000     0.0000000    -0.1894736    -0.1808714    -0.1270217    -0.1400182
    3     0.0000000     0.0000000    -0.0075557    -0.0102633     0.0000000     0.0000000     0.0000000     0.0000000
    4    -0.1496288     0.0810943     0.0000000     0.0000000    -0.0528565    -0.0477658    -0.2252681    -0.2288008
    5    -0.0095380    -0.0077428     0.0000000     0.0000000     0.1227086     0.1153858    -0.0427472    -0.0365903
    6     0.0000000     0.0000000     0.1880360    -0.1895179     0.0000000     0.0000000     0.0000000     0.0000000
    7    -0.1496288    -0.0810943     0.0000000     0.0000000     0.0528565    -0.0477658     0.2252681    -0.2288008
    8    -0.0095380     0.0077428     0.0000000     0.0000000    -0.1227086     0.1153858     0.0427472    -0.0365903
    9     0.0000000     0.0000000    -0.1880360    -0.1895179     0.0000000     0.0000000     0.0000000     0.0000000
   10    -0.1112514    -0.1091176     0.0000000     0.0000000    -0.5201873     0.5089179    -0.3751730     0.3893800
   11    -0.2059147    -0.2525805     0.0000000     0.0000000     0.1894736    -0.1808714     0.1270217    -0.1400182
   12     0.0000000     0.0000000     0.0075557    -0.0102633     0.0000000     0.0000000     0.0000000     0.0000000
   13     0.3137823     0.3216202    -0.3031431    -0.2918868     0.1611606    -0.1720480    -0.2042018     0.2000631
   14     0.1194134     0.1291150    -0.1967882    -0.1910347     0.1047374    -0.1086409    -0.1326226     0.1331389
   15     0.3140897     0.2978588     0.3188595     0.3321094    -0.2255753     0.2343992     0.2932264    -0.2824775
   16     0.3137823     0.3216202     0.3031431     0.2918868     0.1611606    -0.1720480    -0.2042018     0.2000631
   17     0.1194134     0.1291150     0.1967882     0.1910347     0.1047374    -0.1086409    -0.1326226     0.1331389
   18    -0.3140897    -0.2978588     0.3188595     0.3321094     0.2255753    -0.2343992    -0.2932264     0.2824775
   19     0.3137823    -0.3216202    -0.3031431     0.2918868    -0.1611606    -0.1720480     0.2042018     0.2000631
   20     0.1194134    -0.1291150    -0.1967882     0.1910347    -0.1047374    -0.1086409     0.1326226     0.1331389
   21    -0.3140897     0.2978588    -0.3188595     0.3321094    -0.2255753    -0.2343992     0.2932264     0.2824775
   22     0.3137823    -0.3216202     0.3031431    -0.2918868    -0.1611606    -0.1720480     0.2042018     0.2000631
   23     0.1194134    -0.1291150     0.1967882    -0.1910347    -0.1047374    -0.1086409     0.1326226     0.1331389
   24     0.3140897    -0.2978588    -0.3188595     0.3321094     0.2255753     0.2343992    -0.2932264    -0.2824775

   Low Vibration      Wavenumber
        Nr             [1/cm] 
        1                0.00
        2                0.00
        3                0.00
        4                0.00
        5                0.00
        6                0.00

     Vibration        Wavenumber
        Nr             [1/cm] 
        1              189.42
        2              602.82
        3              914.94
        4             1038.58
        5             1090.13
        6             1267.96
        7             1403.59
        8             1417.58
        9             1421.64
       10             1430.79
       11             1561.46
       12             1577.32
       13             2995.11
       14             3018.68
       15             3046.68
       16             3047.14
       17             3197.51
       18             3215.93

 FREQUENCIES * CALCULATION OF NORMAL MODES FOR MP2


 Atomic Coordinates

  Nr  Atom  Charge       X              Y              Z

   1   H1    1.00    2.037831048   -2.089309531    0.000000000
   2   C1    6.00    0.078938112   -1.431735507    0.000000000
   3   C2    6.00   -0.078938112    1.431735507    0.000000000
   4   H2    1.00   -2.037831048    2.089309531    0.000000000
   5   H3    1.00    1.234370210    2.269720920   -1.357448648
   6   H4    1.00    1.234370210    2.269720920    1.357448648
   7   H5    1.00   -1.234370210   -2.269720920   -1.357448648
   8   H6    1.00   -1.234370210   -2.269720920    1.357448648

 Gradient norm at reference geometry: 0.25823D-03

 Normal Modes

                              1 Au        2 Au        3 Bu        4 Ag        5 Bg 
 Wavenumbers [cm-1]          189.42      602.82      914.94     1038.58     1090.13
 Intensities [km/mol]          0.26       17.95        2.48        0.00        0.00
 Intensities [relative]        0.32       22.01        3.04        0.00        0.00
           H1X1            -0.00000     0.00000     0.13997     0.00913    -0.00000
           H1Y1            -0.00000     0.00000     0.50210     0.21804    -0.00000
           H1Z1             0.41918     0.16908     0.00000    -0.00000    -0.28955
           C1X2             0.00000     0.00000    -0.04411    -0.00313     0.00000
           C1Y2            -0.00000     0.00000    -0.00083     0.17371    -0.00000
           C1Z2             0.00215    -0.05310     0.00000     0.00000     0.11994
           C2X3             0.00000    -0.00000    -0.04411     0.00313    -0.00000
           C2Y3            -0.00000     0.00000    -0.00083    -0.17371     0.00000
           C2Z3             0.00215    -0.05310     0.00000    -0.00000    -0.11994
           H2X4             0.00000    -0.00000     0.13997    -0.00913     0.00000
           H2Y4            -0.00000     0.00000     0.50210    -0.21804     0.00000
           H2Z4             0.41918     0.16908     0.00000     0.00000     0.28955
           H3X5            -0.32075     0.05823     0.19260     0.01172     0.05998
           H3Y5             0.08855     0.39996    -0.24614    -0.21066     0.31729
           H3Z5            -0.22238     0.23157     0.05425    -0.00619     0.12739
           H4X6             0.32075    -0.05823     0.19260     0.01172    -0.05998
           H4Y6            -0.08855    -0.39996    -0.24614    -0.21066    -0.31729
           H4Z6            -0.22238     0.23157    -0.05425     0.00619     0.12739
           H5X7             0.32075    -0.05823     0.19260    -0.01172     0.05998
           H5Y7            -0.08855    -0.39996    -0.24614     0.21066     0.31729
           H5Z7            -0.22238     0.23157    -0.05425    -0.00619    -0.12739
           H6X8            -0.32075     0.05823     0.19260    -0.01172    -0.05998
           H6Y8             0.08855     0.39996    -0.24614     0.21066    -0.31729
           H6Z8            -0.22238     0.23157     0.05425     0.00619    -0.12739

                              6 Ag        7 Bu        8 Bg        9 Au       10 Ag 
 Wavenumbers [cm-1]         1267.96     1403.59     1417.58     1421.64     1430.79
 Intensities [km/mol]          0.00        2.19        0.00       20.51        0.00
 Intensities [relative]        0.00        2.69        0.00       25.14        0.00
           H1X1             0.05020     0.15342     0.00000    -0.00000    -0.16377
           H1Y1             0.45313     0.34168     0.00000    -0.00000    -0.28959
           H1Z1            -0.00000     0.00000     0.41664     0.50837     0.00000
           C1X2            -0.11919     0.00465     0.00000     0.00000    -0.02233
           C1Y2            -0.01129    -0.08459    -0.00000     0.00000     0.09943
           C1Z2             0.00000    -0.00000    -0.01644    -0.05068    -0.00000
           C2X3             0.11919     0.00465    -0.00000    -0.00000     0.02233
           C2Y3             0.01129    -0.08459     0.00000     0.00000    -0.09943
           C2Z3            -0.00000    -0.00000     0.01644    -0.05068     0.00000
           H2X4            -0.05020     0.15342    -0.00000    -0.00000     0.16377
           H2Y4            -0.45313     0.34168    -0.00000    -0.00000     0.28959
           H2Z4             0.00000     0.00000    -0.41664     0.50837    -0.00000
           H3X5            -0.12187    -0.10442    -0.26432     0.23927    -0.09025
           H3Y5             0.18675     0.33278     0.29594    -0.20986     0.32805
           H3Z5            -0.09520     0.11636    -0.04698     0.04753     0.12298
           H4X6            -0.12187    -0.10442     0.26432    -0.23927    -0.09025
           H4Y6             0.18675     0.33278    -0.29594     0.20986     0.32805
           H4Z6             0.09520    -0.11636    -0.04698     0.04753    -0.12298
           H5X7             0.12187    -0.10442    -0.26432    -0.23927     0.09025
           H5Y7            -0.18675     0.33278     0.29594     0.20986    -0.32805
           H5Z7            -0.09520    -0.11636     0.04698     0.04753     0.12298
           H6X8             0.12187    -0.10442     0.26432     0.23927     0.09025
           H6Y8            -0.18675     0.33278    -0.29594    -0.20986    -0.32805
           H6Z8             0.09520     0.11636     0.04698     0.04753    -0.12298

                             11 Bu       12 Ag       13 Bg       14 Au       15 Ag 
 Wavenumbers [cm-1]         1561.46     1577.32     2995.11     3018.68     3046.68
 Intensities [km/mol]         14.22        0.00        0.00       81.57        0.00
 Intensities [relative]       17.43        0.00        0.00      100.00        0.00
           H1X1            -0.11082     0.10869    -0.00000     0.00000     0.51816
           H1Y1            -0.20511     0.25160     0.00000    -0.00000    -0.18874
           H1Z1             0.00000    -0.00000    -0.00753    -0.01022    -0.00000
           C1X2            -0.04319     0.02341    -0.00000     0.00000    -0.01526
           C1Y2            -0.00275    -0.00224    -0.00000     0.00000     0.03542
           C1Z2            -0.00000     0.00000     0.05428    -0.05471     0.00000
           C2X3            -0.04319    -0.02341     0.00000    -0.00000     0.01526
           C2Y3            -0.00275     0.00224    -0.00000    -0.00000    -0.03542
           C2Z3            -0.00000    -0.00000    -0.05428    -0.05471     0.00000
           H2X4            -0.11082    -0.10869    -0.00000    -0.00000    -0.51816
           H2Y4            -0.20511    -0.25160     0.00000     0.00000     0.18874
           H2Z4             0.00000     0.00000     0.00753    -0.01022     0.00000
           H3X5             0.31256     0.32037    -0.30196    -0.29075     0.16053
           H3Y5             0.11895     0.12861    -0.19602    -0.19029     0.10433
           H3Z5             0.31287     0.29670     0.31762     0.33082    -0.22470
           H4X6             0.31256     0.32037     0.30196     0.29075     0.16053
           H4Y6             0.11895     0.12861     0.19602     0.19029     0.10433
           H4Z6            -0.31287    -0.29670     0.31762     0.33082     0.22470
           H5X7             0.31256    -0.32037    -0.30196     0.29075    -0.16053
           H5Y7             0.11895    -0.12861    -0.19602     0.19029    -0.10433
           H5Z7            -0.31287     0.29670    -0.31762     0.33082    -0.22470
           H6X8             0.31256    -0.32037     0.30196    -0.29075    -0.16053
           H6Y8             0.11895    -0.12861     0.19602    -0.19029    -0.10433
           H6Z8             0.31287    -0.29670    -0.31762     0.33082     0.22470

                             16 Bu       17 Ag       18 Bu 
 Wavenumbers [cm-1]         3047.14     3197.51     3215.93
 Intensities [km/mol]         47.96        0.00       36.64
 Intensities [relative]       58.80        0.00       44.92
           H1X1             0.50694     0.37371     0.38787
           H1Y1            -0.18017    -0.12653    -0.13947
           H1Z1            -0.00000     0.00000     0.00000
           C1X2            -0.01379    -0.06503    -0.06605
           C1Y2             0.03331    -0.01234    -0.01056
           C1Z2             0.00000    -0.00000     0.00000
           C2X3            -0.01379     0.06503    -0.06605
           C2Y3             0.03331     0.01234    -0.01056
           C2Z3            -0.00000    -0.00000     0.00000
           H2X4             0.50694    -0.37371     0.38787
           H2Y4            -0.18017     0.12653    -0.13947
           H2Z4             0.00000    -0.00000    -0.00000
           H3X5            -0.17138    -0.20341     0.19928
           H3Y5            -0.10822    -0.13211     0.13262
           H3Z5             0.23349     0.29209    -0.28138
           H4X6            -0.17138    -0.20341     0.19928
           H4Y6            -0.10822    -0.13211     0.13262
           H4Z6            -0.23349    -0.29209     0.28138
           H5X7            -0.17138     0.20341     0.19928
           H5Y7            -0.10822     0.13211     0.13262
           H5Z7            -0.23349     0.29209     0.28138
           H6X8            -0.17138     0.20341     0.19928
           H6Y8            -0.10822     0.13211     0.13262
           H6Z8             0.23349    -0.29209    -0.28138


 Normal Modes of low/zero frequencies

                                  1           2           3           4           5
 Wavenumbers [cm-1]            0.00        0.00        0.00        0.00        0.00
 Intensities [km/mol]          0.00        0.00        0.00        0.00        0.00
 Intensities [relative]        0.00        0.00        0.00        0.00        0.00
           H1X1             0.28285     0.00006    -0.00001    -0.00002     0.00002
           H1Y1             0.16106    -0.07028     0.02491    -0.10609    -0.10386
           H1Z1            -0.00017     0.46269     0.12457    -0.12502     0.06717
           C1X2             0.23086     0.00290    -0.00245     0.03047     0.03099
           C1Y2             0.00618    -0.06182     0.01766    -0.01528    -0.01160
           C1Z2            -0.00006     0.10932    -0.07135    -0.15053     0.12592
           C2X3             0.00445     0.01528    -0.01304     0.16321     0.16584
           C2Y3            -0.00631    -0.06113     0.01708    -0.00796    -0.00417
           C2Z3             0.00003    -0.08824     0.14479    -0.10138     0.12666
           H2X4            -0.04754     0.01812    -0.01547     0.19369     0.19681
           H2Y4            -0.16119    -0.05267     0.00983     0.08285     0.08809
           H2Z4             0.00014    -0.44161    -0.05113    -0.12690     0.18541
           H3X5            -0.06187     0.23636     0.15723     0.22804     0.16395
           H3Y5             0.09758    -0.14848     0.13396    -0.04411    -0.06794
           H3Z5            -0.00000     0.07174     0.38168    -0.06098     0.08546
           H4X6            -0.06175    -0.19856    -0.18951     0.17607     0.24666
           H4Y6             0.09749     0.01485    -0.09009    -0.09357    -0.06409
           H4Z6            -0.00000     0.07174     0.38168    -0.06098     0.08546
           H5X7             0.29706     0.21674     0.17402     0.01760    -0.04984
           H5Y7            -0.09762    -0.13780     0.12482     0.07033     0.04832
           H5Z7            -0.00003    -0.05065    -0.30824    -0.19093     0.16712
           H6X8             0.29718    -0.21818    -0.17272    -0.03436     0.03288
           H6Y8            -0.09771     0.02553    -0.09922     0.02087     0.05217
           H6Z8            -0.00003    -0.05065    -0.30824    -0.19093     0.16712

                                  6
 Wavenumbers [cm-1]            0.00
 Intensities [km/mol]          0.00
 Intensities [relative]        0.00
           H1X1             0.00013
           H1Y1             0.15553
           H1Z1             0.14889
           C1X2             0.00490
           C1Y2             0.16973
           C1Z2             0.04230
           C2X3             0.02566
           C2Y3             0.17088
           C2Z3            -0.04767
           H2X4             0.03043
           H2Y4             0.18508
           H2Z4            -0.15427
           H3X5             0.09241
           H3Y5             0.12205
           H3Z5            -0.01323
           H4X6            -0.02894
           H4Y6             0.20066
           H4Z6            -0.01323
           H5X7             0.05950
           H5Y7             0.13995
           H5Z7             0.00786
           H6X8            -0.06185
           H6Y8             0.21856
           H6Z8             0.00786


 Frequencies dumped to record   5400.2

 Zero point energy:  0.07389754 [H]    16218.64 [1/CM]      194.02 [KJ/MOL]
 Frequency information read from record  5400.2

 Recomputing wavefunction at initial geometry


 **********************************************************************************************************************************
 DATASETS  * FILE   NREC   LENGTH (MB)   RECORD NAMES
              1      20       31.75       500      610      700      900      950      970     1000      129      960     1100   
                                          VAR    BASINP    GEOM    SYMINP    ZMAT    AOBASIS   BASIS     P2S    ABASIS      S 
                                         1400     1410     1200     1210     1080     1600     1650     1700     1380     5200   
                                           T        V       H0       H01     AOSYM     SMH    MOLCAS    OPER     JKOP      MP2  

              2       9        1.00       700     1000      520     2100     4100     9001     5300     5450     5400   
                                         GEOM     BASIS   MCVARS     RHF     CPHF    DEN_MP2   HESS     NMOD     FREQ   

 PROGRAMS   *        TOTAL      FREQ      OPTG       MP2    HF-SCF       INT
 CPU TIMES  *        43.77     30.28     12.41      0.09      0.03      0.74
 REAL TIME  *        49.63 SEC
 DISK USED  *       832.62 MB (local),        8.37 GB (total)
 SF USED    *         7.51 MB
 GA USED    *         0.00 MB       (max)       0.00 MB       (current)
 **********************************************************************************************************************************

 Dump information in style MOLDEN to c2h6_molden.dat                                                                 

 Molecular orbitals read from record     2100.2  Type=RHF/CANONICAL (state 1.1)
 Occupation numbers read from record     2100.2  Type=RHF/RHF (state 1.1)
 Orbital energies read from record       2100.2  Type=RHF/CANONICAL (state 1.1)
 Redundancy group numbers read from rec  2100.2  Type=RHF/RHF (state 1.1)

 DUMP ORBITAL  1.1 AS ORBITAL    1  occ=    2.0000  eig=  -11.2132  GROUP=   2
 DUMP ORBITAL  1.3 AS ORBITAL    2  occ=    2.0000  eig=  -11.2126  GROUP=   2
 DUMP ORBITAL  2.1 AS ORBITAL    3  occ=    2.0000  eig=   -1.0229  GROUP=   2
 DUMP ORBITAL  2.3 AS ORBITAL    4  occ=    2.0000  eig=   -0.8515  GROUP=   2
 DUMP ORBITAL  3.3 AS ORBITAL    5  occ=    2.0000  eig=   -0.6388  GROUP=   2
 DUMP ORBITAL  3.1 AS ORBITAL    6  occ=    2.0000  eig=   -0.5480  GROUP=   2
 DUMP ORBITAL  1.2 AS ORBITAL    7  occ=    2.0000  eig=   -0.5407  GROUP=   2
 DUMP ORBITAL  4.1 AS ORBITAL    8  occ=    2.0000  eig=   -0.5052  GROUP=   2
 DUMP ORBITAL  1.4 AS ORBITAL    9  occ=    2.0000  eig=   -0.4217  GROUP=   2

 Total charge:      18.000000
 Frequency information read from record  5400.2

 **********************************************************************************************************************************

 MP2/cc-pVTZ energy=    -79.591345689520

       OPTG(MP2)             MP2          HF-SCF
    -79.59134569    -79.16786879    -78.78226790
 **********************************************************************************************************************************
 Molpro calculation terminated

 Working directory              : /scratch/ddi/mpscr/molpro.IEgcMQOD8j/
 Global scratch directory       : /scratch/ddi/mpscr/molpro.IEgcMQOD8j/
 Wavefunction directory         : /home/ddi/storage_4/Kemal/C2H6/
 Main file repository           : /home/ddi/storage_4/Kemal/C2H6/

 id        : liedlgroup

 Nodes     nprocs
 ae2-c724    12
 GA implementation: MPI file
 GA implementation (serial work in mppx): MPI file

 Using customized tuning parameters: mindgm=1; mindgv=20; mindgc=4; mindgr=1; noblas=0; minvec=7
 default implementation of scratch files=sf  


 Variables initialized (1015), CPU time= 0.01 sec
 ***,c2h6 (ethane) vibrational spectrum
 memory,256,M
 
 orient,mass
 geometry={
 H1
 C1,H1,B1
 C2,C1,B2,H1,A1
 H2,C2,B1,C1,A1,H1,180.0
 H3,C2,B1,C1,A1,H1,45.0
 H4,C2,B1,C1,A1,H1,-45.0
 H5,C1,B1,C2,A1,H2,45.0
 H6,C1,B1,C2,A1,H2,-45.0
 }
 B1= 1.08617963 ANG
 B2= 1.00 ANG
 A1= 109.47122029 DEGREE
 
 mass,iso
 basis=vtz
 {hf
 start,atden}
 mp2
 optg
 frequencies,symm=auto,print=0
 put,molden,c2h6_molden.dat
 
 Commands initialized (818), CPU time= 0.01 sec, 672 directives.
 Default parameters read. Elapsed time= 0.15 sec

 Checking input...
 Passed
1


                                         ***  PROGRAM SYSTEM MOLPRO  ***
                                       Copyright, TTI GmbH Stuttgart, 2015
                                    Version 2022.1 linked Jan 25 2022 12:44:58


 **********************************************************************************************************************************
 LABEL *   c2h6 (ethane) vibrational spectrum                                            
  64 bit mpp version                                                                     DATE: 23-Feb-22          TIME: 13:34:23  
 **********************************************************************************************************************************

 SHA1:             f3d4322b9bdbeed63a35be676bd653804e8a9433
 **********************************************************************************************************************************

 Memory per process:       256 MW
 Total memory per node:   3072 MW

 GA preallocation disabled
 GA check disabled

 Variable memory set to 256.0 MW

 ZCENTRE=MASS

 SETTING B1             =         1.08617963  ANG                             
 SETTING B2             =         1.00000000  ANG                             
 SETTING A1             =       109.47122029  DEGREE                          


 Using masses of most abundant isotopes

 **********************************************************************************************************************************
 SETTING BASIS          =    VTZ


 Recomputing integrals since basis changed


 Using spherical harmonics

 Library entry H      S cc-pVTZ              selected for orbital group  1
 Library entry H      P cc-pVTZ              selected for orbital group  1
 Library entry H      D cc-pVTZ              selected for orbital group  1
 Library entry C      S cc-pVTZ              selected for orbital group  2
 Library entry C      P cc-pVTZ              selected for orbital group  2
 Library entry C      D cc-pVTZ              selected for orbital group  2
 Library entry C      F cc-pVTZ              selected for orbital group  2


 PROGRAM * SEWARD (Integral evaluation for generally contracted gaussian basis sets)     Author: Roland Lindh, 1990

 Geometry written to block  1 of record 700

 Orientation using atomic masses  
 Molecule type: Asymmetric top,     Order of principal axis = 2
 Symmetry elements: Z,XY
 Rotational constants:      39.8152119     80.7843791     34.3295619 GHz

 Point group  C2h 



 ATOMIC COORDINATES

 NR  ATOM    CHARGE       X              Y              Z

   1  H1      1.00    2.110071919   -1.395132585    0.000000000
   2  H2      1.00   -2.110071919    1.395132585    0.000000000
   3  C1      6.00    0.108912504   -0.938565007    0.000000000
   4  C2      6.00   -0.108912504    0.938565007    0.000000000
   5  H3      1.00    1.171488729    1.775929848   -1.368388018
   6  H4      1.00    1.171488729    1.775929848    1.368388018
   7  H5      1.00   -1.171488729   -1.775929848   -1.368388018
   8  H6      1.00   -1.171488729   -1.775929848    1.368388018

 Bond lengths in Bohr (Angstrom)

 1-3  2.052582023  2-4  2.052582023  3-4  1.889726125  3-7  2.052582023  3-8  2.052582023
     ( 1.086179630)     ( 1.086179630)     ( 1.000000000)     ( 1.086179630)     ( 1.086179630)

 4-5  2.052582023  4-6  2.052582023
     ( 1.086179630)     ( 1.086179630)

 Bond angles

  1-3-4  109.47122029   1-3-7  121.15990158   1-3-8  121.15990158   2-4-3  109.47122029

  2-4-5  121.15990158   2-4-6  121.15990158   3-4-5  109.47122029   3-4-6  109.47122029

  4-3-7  109.47122029   4-3-8  109.47122029   5-4-6   83.62063001   7-3-8   83.62063001

 NUCLEAR CHARGE:                   18
 NUMBER OF PRIMITIVE AOS:         196
 NUMBER OF SYMMETRY AOS:          180
 NUMBER OF CONTRACTIONS:          144   (   44Ag  +   28Au  +   44Bu  +   28Bg  )
 NUMBER OF INNER CORE ORBITALS:     0   (    0Ag  +    0Au  +    0Bu  +    0Bg  )
 NUMBER OF OUTER CORE ORBITALS:     2   (    1Ag  +    0Au  +    1Bu  +    0Bg  )
 NUMBER OF VALENCE ORBITALS:       14   (    5Ag  +    2Au  +    5Bu  +    2Bg  )


 NUCLEAR REPULSION ENERGY   51.79858719

 Eigenvalues of metric

         1 0.976E-03 0.114E-02 0.222E-02 0.302E-02 0.562E-02 0.692E-02 0.120E-01 0.137E-01
         2 0.175E-02 0.699E-02 0.188E-01 0.246E-01 0.366E-01 0.598E-01 0.732E-01 0.982E-01
         3 0.220E-03 0.646E-03 0.157E-02 0.175E-02 0.574E-02 0.701E-02 0.145E-01 0.170E-01
         4 0.100E-02 0.441E-02 0.108E-01 0.213E-01 0.424E-01 0.517E-01 0.681E-01 0.770E-01


 Contracted 2-electron integrals neglected if value below      1.0D-11
 AO integral compression algorithm  1   Integral accuracy      1.0D-11

     90.178 MB (compressed) written to integral file ( 57.4%)

     Node minimum: 4.719 MB, node maximum: 9.961 MB


 NUMBER OF SORTED TWO-ELECTRON INTEGRALS:    1153464.     BUFFER LENGTH:  32768
 NUMBER OF SEGMENTS:   1  SEGMENT LENGTH:    1153464      RECORD LENGTH: 524288

 Memory used in sort:       1.71 MW

 SORT1 READ    19689848. AND WROTE     1153464. INTEGRALS IN      4 RECORDS. CPU TIME:     0.25 SEC, REAL TIME:     0.28 SEC
 SORT2 READ    13957890. AND WROTE    13957892. INTEGRALS IN    324 RECORDS. CPU TIME:     0.04 SEC, REAL TIME:     0.07 SEC

 Node minimum:     1149538.  Node maximum:     1169184. integrals

 OPERATOR DM      FOR CENTER  0  COORDINATES:    0.000000    0.000000    0.000000


 **********************************************************************************************************************************
 DATASETS  * FILE   NREC   LENGTH (MB)   RECORD NAMES
              1      18       28.86       500      610      700      900      950      970     1000      129      960     1100   
                                          VAR    BASINP    GEOM    SYMINP    ZMAT    AOBASIS   BASIS     P2S    ABASIS      S 
                                         1400     1410     1200     1210     1080     1600     1650     1700   
                                           T        V       H0       H01     AOSYM     SMH    MOLCAS    OPER   

 PROGRAMS   *        TOTAL       INT
 CPU TIMES  *         0.94      0.74
 REAL TIME  *         1.34 SEC
 DISK USED  *        29.22 MB (local),      607.37 MB (total)
 GA USED    *         0.00 MB       (max)       0.00 MB       (current)
 **********************************************************************************************************************************


 Program * Restricted Hartree-Fock

 Orbital guess generated from atomic densities. Full valence occupancy:    6   2   6   2

 Initial occupancy:   4   1   3   1

 NELEC=   18   SYM=1   MS2= 0   THRE=1.0D-08   THRD=1.0D-06   THRG=1.0D-06  HFMA2=F  DIIS_START=2   DIIS_MAX=10   DIIS_INCORE=F

 Level shifts:    0.00 (CLOSED)    0.00 (OPEN)    0.30 (GAP_MIN)

 ITER           ETOT              DE          GRAD        DDIFF     DIIS  NEXP   TIME(IT)  TIME(TOT)  DIAG
   1      -78.68455655     -78.68455655     0.00D+00     0.13D+00     0     0       0.01      0.01    start
   2      -78.75487477      -0.07031822     0.18D-01     0.25D-01     1     0       0.00      0.01    diag
   3      -78.78133492      -0.02646016     0.96D-02     0.95D-02     2     0       0.00      0.01    diag
   4      -78.78223792      -0.00090299     0.12D-02     0.20D-02     3     0       0.01      0.02    diag
   5      -78.78226685      -0.00002893     0.18D-03     0.51D-03     4     0       0.00      0.02    diag
   6      -78.78226786      -0.00000102     0.30D-04     0.13D-03     5     0       0.00      0.02    diag
   7      -78.78226789      -0.00000003     0.52D-05     0.25D-04     6     0       0.00      0.02    diag
   8      -78.78226790      -0.00000000     0.95D-06     0.40D-05     7     0       0.00      0.02    fixocc
   9      -78.78226790      -0.00000000     0.12D-06     0.41D-06     8     0       0.01      0.03    diag
  10      -78.78226790      -0.00000000     0.20D-07     0.51D-07     0     0       0.00      0.03    diag/orth

 Final occupancy:   4   1   3   1

 !RHF STATE 1.1 Energy                -78.782267895897
  RHF One-electron energy            -206.747692561794
  RHF Two-electron energy              76.166837476019
  RHF Kinetic energy                   81.539853728518
  RHF Nuclear energy                   51.798587189879
  RHF Virial quotient                  -0.966181128534

 !RHF STATE 1.1 Dipole moment           0.00000000     0.00000000     0.00000000
 Dipole moment /Debye                   0.00000000     0.00000000     0.00000000

 Orbital energies:

           1.1          2.1          3.1          4.1          5.1          6.1
    -11.182620    -1.217839    -0.616659    -0.452309     0.141805     0.240077

           1.2          2.2          3.2
     -0.668664     0.187789     0.438364

           1.3          2.3          3.3          4.3          5.3
    -11.166930    -0.810111    -0.744033     0.151756     0.201216

           1.4          2.4          3.4
     -0.347845     0.246753     0.381624


 HOMO      1.4    -0.347845 =      -9.4654eV
 LUMO      5.1     0.141805 =       3.8587eV
 LUMO-HOMO         0.489651 =      13.3241eV

 Orbitals saved in record  2100.2


 **********************************************************************************************************************************
 DATASETS  * FILE   NREC   LENGTH (MB)   RECORD NAMES
              1      18       28.86       500      610      700      900      950      970     1000      129      960     1100   
                                          VAR    BASINP    GEOM    SYMINP    ZMAT    AOBASIS   BASIS     P2S    ABASIS      S 
                                         1400     1410     1200     1210     1080     1600     1650     1700   
                                           T        V       H0       H01     AOSYM     SMH    MOLCAS    OPER   

              2       4        0.52       700     1000      520     2100   
                                         GEOM     BASIS   MCVARS     RHF  

 PROGRAMS   *        TOTAL    HF-SCF       INT
 CPU TIMES  *         0.97      0.03      0.74
 REAL TIME  *         1.40 SEC
 DISK USED  *        29.80 MB (local),      614.37 MB (total)
 GA USED    *         0.00 MB       (max)       0.00 MB       (current)
 **********************************************************************************************************************************


 PROGRAM * MP2 (Closed-shell)     Authors: C. Hampel, H.-J. Werner, 1991, M. Deegan, P.J. Knowles, 1992


 Convergence thresholds:  THRVAR = 1.00D-12  THRDEN = 1.00D-08

 Number of core orbitals:           2 (   1   0   1   0 )
 Number of closed-shell orbitals:   7 (   3   1   2   1 )
 Number of external orbitals:     135 (  40  27  41  27 )

 Molecular orbitals read from record     2100.2  Type=RHF/CANONICAL  

 Number of N-1 electron functions:               7
 Number of N-2 electron functions:              28
 Number of singly external CSFs:               256
 Number of doubly external CSFs:            112921
 Total number of CSFs:                      113178

 Length of J-op  integral file:               0.00 MB
 Length of K-op  integral file:               0.37 MB

 Integral transformation finished. Total CPU:   0.02 sec, npass=  1  Memory used:   0.23 MW

 Memory needed for MP2:                      0.03 MW

 SCS-MP2 correlation energy:           -0.390426751713   (PS=  1.200000  PT=  0.333333)
 SCS-MP2 total energy:                -79.172694647610


  Reference energy                    -78.782267895897
  MP2 singlet pair energy              -0.260476109633
  MP2 triplet pair energy              -0.125124782390
  MP2 correlation energy               -0.385600892023

 !MP2 total energy                    -79.167868787920

 KEXT needed  1 integral passes. Memory used:   0.47 MW  CPU time:      0.02 sec

 CPHF start vector      0.2 not found

 Starting Coupled-perturbed Hartree-Fock, convergence threshold= 1.0D-06

 ITER   MIC  DIIS      VAR         VARC       CPU
   1     0     1    0.38D-01    0.17D-02     0.00
   2     5     2    0.40D-03    0.34D-03     0.00
   3     2     3    0.66D-04    0.52D-05     0.01
   4     4     4    0.20D-05    0.55D-06     0.01
   5     1     5    0.84D-07    0.14D-07     0.01

 CPHF convergence reached in  5 macroiterations and   12 microiterations.   Accuracy: 8.4476D-08

 CPHF solution written to record  4100.2

 Dipole moments (unrelaxed):            0.00000000     0.00000000     0.00000000
 Orbital relaxation contribution:      -0.00000000    -0.00000000    -0.00000000
 !MP2 STATE 1.1 Dipole moment           0.00000000     0.00000000     0.00000000
 Dipole moment /Debye                   0.00000000     0.00000000     0.00000000

 CPU-time for density and lagrangian:                  0.01 sec
 CPU-time for coupled-perturbed hartree-fock:          0.01 sec

 MP2 gradient info saved on record         5200.1


 **********************************************************************************************************************************
 DATASETS  * FILE   NREC   LENGTH (MB)   RECORD NAMES
              1      20       31.75       500      610      700      900      950      970     1000      129      960     1100   
                                          VAR    BASINP    GEOM    SYMINP    ZMAT    AOBASIS   BASIS     P2S    ABASIS      S 
                                         1400     1410     1200     1210     1080     1600     1650     1700     1380     5200   
                                           T        V       H0       H01     AOSYM     SMH    MOLCAS    OPER     JKOP      MP2  

              2       5        0.78       700     1000      520     2100     4100   
                                         GEOM     BASIS   MCVARS     RHF     CPHF   

 PROGRAMS   *        TOTAL       MP2    HF-SCF       INT
 CPU TIMES  *         1.07      0.09      0.03      0.74
 REAL TIME  *         1.53 SEC
 DISK USED  *        32.61 MB (local),      648.10 MB (total)
 SF USED    *         7.36 MB
 GA USED    *         0.00 MB       (max)       0.00 MB       (current)
 **********************************************************************************************************************************


 PROGRAM * OPT (Geometry optimization)     Authors: F. Eckert and H.-J. Werner


 BFGS update of hessian

 *** Long output written to logfile /media/storage_4_240T/ddi/Kemal/C2H6/c2h6.log ***


 Geometry optimization using default procedure for command MP2

 Geometry written to block  1 of record 700

 Making model hessian for Z-matrix coordinates

 Entering Rational Function Geometry Optimization

 ITER.   ENERGY(OLD)    ENERGY(NEW)      DE          GRADMAX     GRADNORM    GRADRMS     STEPMAX     STEPLEN     STEPRMS   CPU-time
   1   -79.16786879   -79.44908658    -0.28121779  1.35672467  1.41788391  0.81861566  0.29877661  0.30000000  0.10000000      1.49
   2   -79.44908658   -79.53826245    -0.08917588  0.56887321  0.60757572  0.35078400  0.20345671  0.20667273  0.06889091      3.02
   3   -79.53826245   -79.57653402    -0.03827156  0.28192413  0.29069607  0.16783346  0.19482274  0.19524430  0.06508143      4.56
   4   -79.57653402   -79.58836489    -0.01183087  0.11975607  0.11980736  0.06917081  0.14640806  0.14700094  0.04900031      6.03
   5   -79.58836489   -79.59106699    -0.00270210  0.04532002  0.04670884  0.02696736  0.09170746  0.09289421  0.03096474      7.57
   6   -79.59106699   -79.59133810    -0.00027112  0.01269082  0.01327135  0.00766222  0.03570316  0.03617752  0.01205917      9.20
   7   -79.59133810   -79.59134566    -0.00000756  0.00206656  0.00210643  0.00121615  0.00680111  0.00686554  0.00228851     10.72
   8   -79.59134566   -79.59134569    -0.00000003  0.00012606  0.00013951  0.00008055  0.00041796  0.00041941  0.00013980     12.28

 END OF GEOMETRY OPTIMIZATION.

 Optimized variables
 B1=                  1.09344776 ANG
 B2=                  1.51758495 ANG
 A1=                111.71199254 DEGREE

 **********************************************************************************************************************************

 Geometry written to block  1 of record 700

 Recomputing wavefunction for reoriented structure

 Current geometry (xyz format, in Angstrom)

    8
 MP2/VTZ  ENERGY=-79.59134569
 H          1.0783737505       -1.1056149905        0.0000000000
 C          0.0417722502       -0.7576418023        0.0000000000
 C         -0.0417722502        0.7576418023        0.0000000000
 H         -1.0783737505        1.1056149905        0.0000000000
 H          0.6532005847        1.2010845859       -0.7183308894
 H          0.6532005847        1.2010845859        0.7183308894
 H         -0.6532005847       -1.2010845859       -0.7183308894
 H         -0.6532005847       -1.2010845859        0.7183308894

 **********************************************************************************************************************************


 **********************************************************************************************************************************
 DATASETS  * FILE   NREC   LENGTH (MB)   RECORD NAMES
              1      21       32.86       500      610      700      900      950      970     1000      129      960     1100   
                                          VAR    BASINP    GEOM    SYMINP    ZMAT    AOBASIS   BASIS     P2S    ABASIS      S 
                                         1400     1410     1200     1210     1080     1600     1650     1700     1380     5200   
                                           T        V       H0       H01     AOSYM     SMH    MOLCAS    OPER     JKOP      MP2  
                                         5201   
                                          MP2  

              2       6        0.92       700     1000      520     2100     4100     9001   
                                         GEOM     BASIS   MCVARS     RHF     CPHF    DEN_MP2    

 PROGRAMS   *        TOTAL      OPTG       MP2    HF-SCF       INT
 CPU TIMES  *        13.49     12.41      0.09      0.03      0.74
 REAL TIME  *        15.15 SEC
 DISK USED  *        33.85 MB (local),      663.09 MB (total)
 SF USED    *         7.50 MB
 GA USED    *         0.00 MB       (max)       0.00 MB       (current)
 **********************************************************************************************************************************


 PROGRAM * HESSIAN

 Computing numerical hessian using default procedure for command MP2

 Symmetry elements for unique displacements: Z  XY 

 Using AUTO symmetry option

 Running default procedure: HF-SCF000  MP2


 Numerically approximating hessian using central gradient differences

 Task list generated. Total number of displacements:     16

 All  16 tasks completed.  CPU=     32.27 sec, Elapsed=     33.36 sec.

 MP2 hessian saved to record  5300.2

 PROGRAM * FREQUENCIES (Calculation of harmonic vibrational spectra for MP2)


 Permanent Dipole Moment [debye]
   1-  3    0.000000    0.000000    0.000000

 Dipole Moment Norm    0.0000000 [debye]

 Dipole Moment Derivatives [debye/ang]
              1             2             3             4             5             6             7             8
    1    -0.2482394     0.1135813     0.0000000     0.2227371     0.0221025     0.0000000     0.2227371     0.0221025
[...]
             17            18            19            20            21            22            23            24
    1    -0.1112514     0.1091176     0.0000000     0.0000000     0.5201873     0.5089179     0.3751730     0.3893800
    2    -0.2059147     0.2525805     0.0000000     0.0000000    -0.1894736    -0.1808714    -0.1270217    -0.1400182
    3     0.0000000     0.0000000    -0.0075557    -0.0102633     0.0000000     0.0000000     0.0000000     0.0000000
    4    -0.1496288     0.0810943     0.0000000     0.0000000    -0.0528565    -0.0477658    -0.2252681    -0.2288008
    5    -0.0095380    -0.0077428     0.0000000     0.0000000     0.1227086     0.1153858    -0.0427472    -0.0365903
    6     0.0000000     0.0000000     0.1880360    -0.1895179     0.0000000     0.0000000     0.0000000     0.0000000
    7    -0.1496288    -0.0810943     0.0000000     0.0000000     0.0528565    -0.0477658     0.2252681    -0.2288008
    8    -0.0095380     0.0077428     0.0000000     0.0000000    -0.1227086     0.1153858     0.0427472    -0.0365903
    9     0.0000000     0.0000000    -0.1880360    -0.1895179     0.0000000     0.0000000     0.0000000     0.0000000
   10    -0.1112514    -0.1091176     0.0000000     0.0000000    -0.5201873     0.5089179    -0.3751730     0.3893800
   11    -0.2059147    -0.2525805     0.0000000     0.0000000     0.1894736    -0.1808714     0.1270217    -0.1400182
   12     0.0000000     0.0000000     0.0075557    -0.0102633     0.0000000     0.0000000     0.0000000     0.0000000
   13     0.3137823     0.3216202    -0.3031431    -0.2918868     0.1611606    -0.1720480    -0.2042018     0.2000631
   14     0.1194134     0.1291150    -0.1967882    -0.1910347     0.1047374    -0.1086409    -0.1326226     0.1331389
   15     0.3140897     0.2978588     0.3188595     0.3321094    -0.2255753     0.2343992     0.2932264    -0.2824775
   16     0.3137823     0.3216202     0.3031431     0.2918868     0.1611606    -0.1720480    -0.2042018     0.2000631
   17     0.1194134     0.1291150     0.1967882     0.1910347     0.1047374    -0.1086409    -0.1326226     0.1331389
   18    -0.3140897    -0.2978588     0.3188595     0.3321094     0.2255753    -0.2343992    -0.2932264     0.2824775
   19     0.3137823    -0.3216202    -0.3031431     0.2918868    -0.1611606    -0.1720480     0.2042018     0.2000631
   20     0.1194134    -0.1291150    -0.1967882     0.1910347    -0.1047374    -0.1086409     0.1326226     0.1331389
   21    -0.3140897     0.2978588    -0.3188595     0.3321094    -0.2255753    -0.2343992     0.2932264     0.2824775
   22     0.3137823    -0.3216202     0.3031431    -0.2918868    -0.1611606    -0.1720480     0.2042018     0.2000631
   23     0.1194134    -0.1291150     0.1967882    -0.1910347    -0.1047374    -0.1086409     0.1326226     0.1331389
   24     0.3140897    -0.2978588    -0.3188595     0.3321094     0.2255753     0.2343992    -0.2932264    -0.2824775

   Low Vibration      Wavenumber
        Nr             [1/cm] 
        1                0.00
        2                0.00
        3                0.00
        4                0.00
        5                0.00
        6                0.00

     Vibration        Wavenumber
        Nr             [1/cm] 
        1              189.42
        2              602.82
        3              914.94
        4             1038.58
        5             1090.13
        6             1267.96
        7             1403.59
        8             1417.58
        9             1421.64
       10             1430.79
       11             1561.46
       12             1577.32
       13             2995.11
       14             3018.68
       15             3046.68
       16             3047.14
       17             3197.51
       18             3215.93

 FREQUENCIES * CALCULATION OF NORMAL MODES FOR MP2


 Atomic Coordinates

  Nr  Atom  Charge       X              Y              Z

   1   H1    1.00    2.037831048   -2.089309531    0.000000000
   2   C1    6.00    0.078938112   -1.431735507    0.000000000
   3   C2    6.00   -0.078938112    1.431735507    0.000000000
   4   H2    1.00   -2.037831048    2.089309531    0.000000000
   5   H3    1.00    1.234370210    2.269720920   -1.357448648
   6   H4    1.00    1.234370210    2.269720920    1.357448648
   7   H5    1.00   -1.234370210   -2.269720920   -1.357448648
   8   H6    1.00   -1.234370210   -2.269720920    1.357448648

 Gradient norm at reference geometry: 0.25823D-03

 Normal Modes

                              1 Au        2 Au        3 Bu        4 Ag        5 Bg 
 Wavenumbers [cm-1]          189.42      602.82      914.94     1038.58     1090.13
 Intensities [km/mol]          0.26       17.95        2.48        0.00        0.00
 Intensities [relative]        0.32       22.01        3.04        0.00        0.00
           H1X1            -0.00000     0.00000     0.13997     0.00913    -0.00000
           H1Y1            -0.00000     0.00000     0.50210     0.21804    -0.00000
           H1Z1             0.41918     0.16908     0.00000    -0.00000    -0.28955
           C1X2             0.00000     0.00000    -0.04411    -0.00313     0.00000
           C1Y2            -0.00000     0.00000    -0.00083     0.17371    -0.00000
           C1Z2             0.00215    -0.05310     0.00000     0.00000     0.11994
           C2X3             0.00000    -0.00000    -0.04411     0.00313    -0.00000
           C2Y3            -0.00000     0.00000    -0.00083    -0.17371     0.00000
           C2Z3             0.00215    -0.05310     0.00000    -0.00000    -0.11994
           H2X4             0.00000    -0.00000     0.13997    -0.00913     0.00000
           H2Y4            -0.00000     0.00000     0.50210    -0.21804     0.00000
           H2Z4             0.41918     0.16908     0.00000     0.00000     0.28955
           H3X5            -0.32075     0.05823     0.19260     0.01172     0.05998
           H3Y5             0.08855     0.39996    -0.24614    -0.21066     0.31729
           H3Z5            -0.22238     0.23157     0.05425    -0.00619     0.12739
           H4X6             0.32075    -0.05823     0.19260     0.01172    -0.05998
           H4Y6            -0.08855    -0.39996    -0.24614    -0.21066    -0.31729
           H4Z6            -0.22238     0.23157    -0.05425     0.00619     0.12739
           H5X7             0.32075    -0.05823     0.19260    -0.01172     0.05998
           H5Y7            -0.08855    -0.39996    -0.24614     0.21066     0.31729
           H5Z7            -0.22238     0.23157    -0.05425    -0.00619    -0.12739
           H6X8            -0.32075     0.05823     0.19260    -0.01172    -0.05998
           H6Y8             0.08855     0.39996    -0.24614     0.21066    -0.31729
           H6Z8            -0.22238     0.23157     0.05425     0.00619    -0.12739

                              6 Ag        7 Bu        8 Bg        9 Au       10 Ag 
 Wavenumbers [cm-1]         1267.96     1403.59     1417.58     1421.64     1430.79
 Intensities [km/mol]          0.00        2.19        0.00       20.51        0.00
 Intensities [relative]        0.00        2.69        0.00       25.14        0.00
           H1X1             0.05020     0.15342     0.00000    -0.00000    -0.16377
           H1Y1             0.45313     0.34168     0.00000    -0.00000    -0.28959
           H1Z1            -0.00000     0.00000     0.41664     0.50837     0.00000
           C1X2            -0.11919     0.00465     0.00000     0.00000    -0.02233
           C1Y2            -0.01129    -0.08459    -0.00000     0.00000     0.09943
           C1Z2             0.00000    -0.00000    -0.01644    -0.05068    -0.00000
           C2X3             0.11919     0.00465    -0.00000    -0.00000     0.02233
           C2Y3             0.01129    -0.08459     0.00000     0.00000    -0.09943
           C2Z3            -0.00000    -0.00000     0.01644    -0.05068     0.00000
           H2X4            -0.05020     0.15342    -0.00000    -0.00000     0.16377
           H2Y4            -0.45313     0.34168    -0.00000    -0.00000     0.28959
           H2Z4             0.00000     0.00000    -0.41664     0.50837    -0.00000
           H3X5            -0.12187    -0.10442    -0.26432     0.23927    -0.09025
           H3Y5             0.18675     0.33278     0.29594    -0.20986     0.32805
           H3Z5            -0.09520     0.11636    -0.04698     0.04753     0.12298
           H4X6            -0.12187    -0.10442     0.26432    -0.23927    -0.09025
           H4Y6             0.18675     0.33278    -0.29594     0.20986     0.32805
           H4Z6             0.09520    -0.11636    -0.04698     0.04753    -0.12298
           H5X7             0.12187    -0.10442    -0.26432    -0.23927     0.09025
           H5Y7            -0.18675     0.33278     0.29594     0.20986    -0.32805
           H5Z7            -0.09520    -0.11636     0.04698     0.04753     0.12298
           H6X8             0.12187    -0.10442     0.26432     0.23927     0.09025
           H6Y8            -0.18675     0.33278    -0.29594    -0.20986    -0.32805
           H6Z8             0.09520     0.11636     0.04698     0.04753    -0.12298

                             11 Bu       12 Ag       13 Bg       14 Au       15 Ag 
 Wavenumbers [cm-1]         1561.46     1577.32     2995.11     3018.68     3046.68
 Intensities [km/mol]         14.22        0.00        0.00       81.57        0.00
 Intensities [relative]       17.43        0.00        0.00      100.00        0.00
           H1X1            -0.11082     0.10869    -0.00000     0.00000     0.51816
           H1Y1            -0.20511     0.25160     0.00000    -0.00000    -0.18874
           H1Z1             0.00000    -0.00000    -0.00753    -0.01022    -0.00000
           C1X2            -0.04319     0.02341    -0.00000     0.00000    -0.01526
           C1Y2            -0.00275    -0.00224    -0.00000     0.00000     0.03542
           C1Z2            -0.00000     0.00000     0.05428    -0.05471     0.00000
           C2X3            -0.04319    -0.02341     0.00000    -0.00000     0.01526
           C2Y3            -0.00275     0.00224    -0.00000    -0.00000    -0.03542
           C2Z3            -0.00000    -0.00000    -0.05428    -0.05471     0.00000
           H2X4            -0.11082    -0.10869    -0.00000    -0.00000    -0.51816
           H2Y4            -0.20511    -0.25160     0.00000     0.00000     0.18874
           H2Z4             0.00000     0.00000     0.00753    -0.01022     0.00000
           H3X5             0.31256     0.32037    -0.30196    -0.29075     0.16053
           H3Y5             0.11895     0.12861    -0.19602    -0.19029     0.10433
           H3Z5             0.31287     0.29670     0.31762     0.33082    -0.22470
           H4X6             0.31256     0.32037     0.30196     0.29075     0.16053
           H4Y6             0.11895     0.12861     0.19602     0.19029     0.10433
           H4Z6            -0.31287    -0.29670     0.31762     0.33082     0.22470
           H5X7             0.31256    -0.32037    -0.30196     0.29075    -0.16053
           H5Y7             0.11895    -0.12861    -0.19602     0.19029    -0.10433
           H5Z7            -0.31287     0.29670    -0.31762     0.33082    -0.22470
           H6X8             0.31256    -0.32037     0.30196    -0.29075    -0.16053
           H6Y8             0.11895    -0.12861     0.19602    -0.19029    -0.10433
           H6Z8             0.31287    -0.29670    -0.31762     0.33082     0.22470

                             16 Bu       17 Ag       18 Bu 
 Wavenumbers [cm-1]         3047.14     3197.51     3215.93
 Intensities [km/mol]         47.96        0.00       36.64
 Intensities [relative]       58.80        0.00       44.92
           H1X1             0.50694     0.37371     0.38787
           H1Y1            -0.18017    -0.12653    -0.13947
           H1Z1            -0.00000     0.00000     0.00000
           C1X2            -0.01379    -0.06503    -0.06605
           C1Y2             0.03331    -0.01234    -0.01056
           C1Z2             0.00000    -0.00000     0.00000
           C2X3            -0.01379     0.06503    -0.06605
           C2Y3             0.03331     0.01234    -0.01056
           C2Z3            -0.00000    -0.00000     0.00000
           H2X4             0.50694    -0.37371     0.38787
           H2Y4            -0.18017     0.12653    -0.13947
           H2Z4             0.00000    -0.00000    -0.00000
           H3X5            -0.17138    -0.20341     0.19928
           H3Y5            -0.10822    -0.13211     0.13262
           H3Z5             0.23349     0.29209    -0.28138
           H4X6            -0.17138    -0.20341     0.19928
           H4Y6            -0.10822    -0.13211     0.13262
           H4Z6            -0.23349    -0.29209     0.28138
           H5X7            -0.17138     0.20341     0.19928
           H5Y7            -0.10822     0.13211     0.13262
           H5Z7            -0.23349     0.29209     0.28138
           H6X8            -0.17138     0.20341     0.19928
           H6Y8            -0.10822     0.13211     0.13262
           H6Z8             0.23349    -0.29209    -0.28138


 Normal Modes of low/zero frequencies

                                  1           2           3           4           5
 Wavenumbers [cm-1]            0.00        0.00        0.00        0.00        0.00
 Intensities [km/mol]          0.00        0.00        0.00        0.00        0.00
 Intensities [relative]        0.00        0.00        0.00        0.00        0.00
           H1X1             0.28285     0.00006    -0.00001    -0.00002     0.00002
           H1Y1             0.16106    -0.07028     0.02491    -0.10609    -0.10386
           H1Z1            -0.00017     0.46269     0.12457    -0.12502     0.06717
           C1X2             0.23086     0.00290    -0.00245     0.03047     0.03099
           C1Y2             0.00618    -0.06182     0.01766    -0.01528    -0.01160
           C1Z2            -0.00006     0.10932    -0.07135    -0.15053     0.12592
           C2X3             0.00445     0.01528    -0.01304     0.16321     0.16584
           C2Y3            -0.00631    -0.06113     0.01708    -0.00796    -0.00417
           C2Z3             0.00003    -0.08824     0.14479    -0.10138     0.12666
           H2X4            -0.04754     0.01812    -0.01547     0.19369     0.19681
           H2Y4            -0.16119    -0.05267     0.00983     0.08285     0.08809
           H2Z4             0.00014    -0.44161    -0.05113    -0.12690     0.18541
           H3X5            -0.06187     0.23636     0.15723     0.22804     0.16395
           H3Y5             0.09758    -0.14848     0.13396    -0.04411    -0.06794
           H3Z5            -0.00000     0.07174     0.38168    -0.06098     0.08546
           H4X6            -0.06175    -0.19856    -0.18951     0.17607     0.24666
           H4Y6             0.09749     0.01485    -0.09009    -0.09357    -0.06409
           H4Z6            -0.00000     0.07174     0.38168    -0.06098     0.08546
           H5X7             0.29706     0.21674     0.17402     0.01760    -0.04984
           H5Y7            -0.09762    -0.13780     0.12482     0.07033     0.04832
           H5Z7            -0.00003    -0.05065    -0.30824    -0.19093     0.16712
           H6X8             0.29718    -0.21818    -0.17272    -0.03436     0.03288
           H6Y8            -0.09771     0.02553    -0.09922     0.02087     0.05217
           H6Z8            -0.00003    -0.05065    -0.30824    -0.19093     0.16712

                                  6
 Wavenumbers [cm-1]            0.00
 Intensities [km/mol]          0.00
 Intensities [relative]        0.00
           H1X1             0.00013
           H1Y1             0.15553
           H1Z1             0.14889
           C1X2             0.00490
           C1Y2             0.16973
           C1Z2             0.04230
           C2X3             0.02566
           C2Y3             0.17088
           C2Z3            -0.04767
           H2X4             0.03043
           H2Y4             0.18508
           H2Z4            -0.15427
           H3X5             0.09241
           H3Y5             0.12205
           H3Z5            -0.01323
           H4X6            -0.02894
           H4Y6             0.20066
           H4Z6            -0.01323
           H5X7             0.05950
           H5Y7             0.13995
           H5Z7             0.00786
           H6X8            -0.06185
           H6Y8             0.21856
           H6Z8             0.00786


 Frequencies dumped to record   5400.2

 Zero point energy:  0.07389754 [H]    16218.64 [1/CM]      194.02 [KJ/MOL]
 Frequency information read from record  5400.2

 Recomputing wavefunction at initial geometry


 **********************************************************************************************************************************
 DATASETS  * FILE   NREC   LENGTH (MB)   RECORD NAMES
              1      20       31.75       500      610      700      900      950      970     1000      129      960     1100   
                                          VAR    BASINP    GEOM    SYMINP    ZMAT    AOBASIS   BASIS     P2S    ABASIS      S 
                                         1400     1410     1200     1210     1080     1600     1650     1700     1380     5200   
                                           T        V       H0       H01     AOSYM     SMH    MOLCAS    OPER     JKOP      MP2  

              2       9        1.00       700     1000      520     2100     4100     9001     5300     5450     5400   
                                         GEOM     BASIS   MCVARS     RHF     CPHF    DEN_MP2   HESS     NMOD     FREQ   

 PROGRAMS   *        TOTAL      FREQ      OPTG       MP2    HF-SCF       INT
 CPU TIMES  *        43.77     30.28     12.41      0.09      0.03      0.74
 REAL TIME  *        49.63 SEC
 DISK USED  *       832.62 MB (local),        8.37 GB (total)
 SF USED    *         7.51 MB
 GA USED    *         0.00 MB       (max)       0.00 MB       (current)
 **********************************************************************************************************************************

 Dump information in style MOLDEN to c2h6_molden.dat                                                                 

 Molecular orbitals read from record     2100.2  Type=RHF/CANONICAL (state 1.1)
 Occupation numbers read from record     2100.2  Type=RHF/RHF (state 1.1)
 Orbital energies read from record       2100.2  Type=RHF/CANONICAL (state 1.1)
 Redundancy group numbers read from rec  2100.2  Type=RHF/RHF (state 1.1)

 DUMP ORBITAL  1.1 AS ORBITAL    1  occ=    2.0000  eig=  -11.2132  GROUP=   2
 DUMP ORBITAL  1.3 AS ORBITAL    2  occ=    2.0000  eig=  -11.2126  GROUP=   2
 DUMP ORBITAL  2.1 AS ORBITAL    3  occ=    2.0000  eig=   -1.0229  GROUP=   2
 DUMP ORBITAL  2.3 AS ORBITAL    4  occ=    2.0000  eig=   -0.8515  GROUP=   2
 DUMP ORBITAL  3.3 AS ORBITAL    5  occ=    2.0000  eig=   -0.6388  GROUP=   2
 DUMP ORBITAL  3.1 AS ORBITAL    6  occ=    2.0000  eig=   -0.5480  GROUP=   2
 DUMP ORBITAL  1.2 AS ORBITAL    7  occ=    2.0000  eig=   -0.5407  GROUP=   2
 DUMP ORBITAL  4.1 AS ORBITAL    8  occ=    2.0000  eig=   -0.5052  GROUP=   2
 DUMP ORBITAL  1.4 AS ORBITAL    9  occ=    2.0000  eig=   -0.4217  GROUP=   2

 Total charge:      18.000000
 Frequency information read from record  5400.2

 **********************************************************************************************************************************

 MP2/cc-pVTZ energy=    -79.591345689520

       OPTG(MP2)             MP2          HF-SCF
    -79.59134569    -79.16786879    -78.78226790
 **********************************************************************************************************************************
 Molpro calculation terminated
