[Molden Format]
[Molpro variables]
_NUMVAR=  1064.000000000000    
_AVOGAD= 0.6022140760000000E+24
_BOLTZ= 0.1380649000000000E-22
_CLIGHTSI=  299792458.0000000    
_JOULE= 0.4359744722207100E-17
_JPCAL=  4.184000000000000    
_PLANCK= 0.6626070150000000E-33
_BOHR= 0.5291772109030000E-10
_ECHARG= 0.1602176634000000E-18
_ENULL= 0.8854187812800001E-11
_MU= 0.1660539066600000E-26
_EMASS= 0.9109383701500001E-30
_AMU2AU=  1822.888486217313    
_CLIGHT=  29979245800.00000    
_EV= 0.3674932217565494E-01
_KJOULE= 0.3808798847133432E-03
_KJOULE/MOL= 0.3808798847133432E-03
_CM= 0.4556335252912009E-05
_CM-1= 0.4556335252912009E-05
_DEB2SI= 0.3335640951981520E-29
_KCAL= 0.1593601437640628E-02
_KCAL/MOL= 0.1593601437640628E-02
_KELVIN= 0.3166811563455608E-05
_HERTZ= 0.1519829846057038E-15
_HZ= 0.1519829846057038E-15
_TOA= 0.5291772109030000    
_TOANG= 0.5291772109030000    
_TORAD= 0.1745329251994330E-01
_TOCM=  219474.6313631965    
_TODEBYE=  2.541746473194078    
_TOE= 0.4803204712570263E-09
_TOEV=  27.21138624598803    
_TOHERTZ=  6579683920501656.    
_TOHZ=  6579683920501656.    
_TOK=  315775.0248040668    
_TOKCAL=  627.5094740630558    
_TOKELVIN=  315775.0248040668    
_TOKJ=  2625.499639479825    
_TOKJOULE=  2625.499639479825    
_TOKG= 0.1660539066600000E-26
_ANG=  1.889726124625770    
_ANGSTROM=  1.889726124625770    
_RPAREF=  0.000000000000000    
_RPADISS=  0.000000000000000    
_IGNORE_UNDEF=  2.000000000000000    
_STRICTCHECK=  0.000000000000000    
!SEWARD=  0.000000000000000    
!MULTI=  0.000000000000000    
!DFMULTI=  0.000000000000000    
_SEW_ONEEL=  0.000000000000000    
_CPPDONE=FALSE
_DKROLL_DONE=  0.000000000000000    
_FNUC_DONE=  0.000000000000000    
_FOCKDONE=TRUE
_GRADONE=FALSE
_HESSDONE=TRUE
_INTDONE=TRUE
_SCFDONE=TRUE
_MODUL_BLOCK=FALSE
_MODUL_CUDA=FALSE
_MODUL_SLATER=FALSE
_MODUL_MRCC=FALSE
_MODUL_NBO6=FALSE
_MODUL_NECI=FALSE
_MODUL_AIMS=TRUE
_MODUL_GECCO=FALSE
_ISWINDOWS=FALSE
_MRCC_EXEC=
_FITC_AO_SAVED=  0.000000000000000    
_FITC_MO_SAVED=  0.000000000000000    
_SHARED_FS=TRUE
_LSTYP=SEWARD
_INTYP=INTS
_GEOMTYP=ZMAT
_GRADTYP=ALASKA
_DIRECT=FALSE
_DKHO= -1.000000000000000    
_FNUC=  0.000000000000000    
_SYNCM=  0.000000000000000    
_BASIS=VTZ
_ZCENTRE=MASS
_ZORIENT=  1.000000000000000    
_NELEC=  18.00000000000000    
!SPIN=  0.000000000000000    
_OPTCONV= 0.4745308887435178E-03
_QSDSTEP=  0.000000000000000    
_QSDIRC=  0.000000000000000    
_PROGRAM=FREQ
_CPUSTEP=  0.000000000000000    
_SYSSTEP=  0.000000000000000    
_WALLSTEP=  0.000000000000000    
!DFMP2=  0.000000000000000    
!DFSCF=  0.000000000000000    
!SCSGRD=  0.000000000000000    
_CPUTOT=  41.93000000000000    
_CPUCCSD= 0.9999999999998010E-02
_SYSCCSD=  0.000000000000000    
_WALLCCSD= 0.1999999955296516E-01
_CPUF12=  0.000000000000000    
_SYSF12=  0.000000000000000    
_WALLF12=  0.000000000000000    
_CPUF12B=  0.000000000000000    
_SYSF12B=  0.000000000000000    
_WALLF12B=  0.000000000000000    
_CPUTRANS= 0.1000000000000512E-01
_SYSTRANS= 0.9999999999999787E-02
_WALLTRANS= 0.1999999955296516E-01
_DFTEXFAC=  1.000000000000000    
_DMX=  0.000000000000000    
_DMY=  0.000000000000000    
_DMZ=  0.000000000000000    
_DMX_SCF=  0.000000000000000    
_DMY_SCF=  0.000000000000000    
_DMZ_SCF=  0.000000000000000    
_FREQUENCIES= 0.7942460946063780E-04
_HOMO=  4.100000000000000    
_EHOMO=-0.4867987055657892    
_LUMO=  5.100000000000000    
_ELUMO= 0.1413636291266361    
_EMP2= -79.62990828270050    
_EMP2_SING=-0.2585231404946847    
_EMP2_TRIP=-0.1114213527421291    
_EMP2_SCS= -79.63952039976351    
_ECSING=-0.2585231404946846    
_ECTRIP=-0.1114213527421292    
_ENERGC= -79.62990828270050    
_ENERG_CC=  0.000000000000000    
_ENERG_CV=  0.000000000000000    
_ENERG_VV=-0.3699444932368138    
_ENERGR= -79.25996378946368    
_ENERGY= -79.62990828270050    
_ENERGY_METHOD=MP2
_ENERGY_BASIS=cc-pVTZ
_GEOMETRY_METHOD=
_GEOMETRY_BASIS=
_ENUC=  42.37129980754711    
_FREQSTEP=  17.00000000000000    
_GRADENERG= -79.62990382055239    
_GRADEXFAC=  9999.000000000000    
_GRADMETHOD=  8.000000000000000    
_NMRMETHOD=  0.000000000000000    
_NMRMAGNET=  0.000000000000000    
_GRADRECORD=TRUE
_VIRIAL= 0.2840406056964228E-02
!GRID_FREEZE= -1.000000000000000    
!NEESE_INDEX=  0.000000000000000    
_ITERATIONS=  1.000000000000000    
_LASTNELEC=  18.00000000000000    
_LASTSPIN=  0.000000000000000    
_LASTSYM=  1.000000000000000    
_MPP_PROG=  1.000000000000000    
_MSNSTATES=  0.000000000000000    
_RS2PHASE=  0.000000000000000    
_IPROC_MPP=  0.000000000000000    
_IPROC_MPPX=  0.000000000000000    
_NPROC_MPP=  12.00000000000000    
_NPROC_MPPX=  12.00000000000000    
_NPROC_SMP=  1.000000000000000    
_NUMSTEP=  0.000000000000000    
_OPTCONVMX= 0.4715687733878749E-03
_OPTCONVRMS= 0.1581769629145059E-03
_OPTGRAD= 0.1787032124231876E-03
_OPTGRADMX= 0.1378734651675817E-03
_OPTGRADRMS= 0.1031743477975782E-03
_OPTSTEP=  8.000000000000000    
_ORBITAL=  2100.200000000000    
_PI=  3.141592653589793    
_ECDIAG=-0.7236291144496566E-01
_EPDIAG=-0.7236291144496566E-01
_SEIG_MIN= 0.1185035545969629E-02
_SEWPROP=TRUE
_STATUS=  1.000000000000000    
_SYSTOT=  4.340000000000000    
_T1DIAG=  0.000000000000000    
_VERSION=  2022001.000000000    
_WALLTOT=  46.36000000000000    
_ZPE= 0.7567828782636088E-01
_DATE=23-Feb-22
_LASTORB=0
_METHODC=MP2
_OUTPUT=/media/storage_4_240T/ddi/Kemal/C2H6/c2h6.out
_PGROUP=C2h
_TIME=22:50:48
_ANSATZ=
_LIBMOL=/usr/local/molpro/molpro_2022.1/lib/
_VIGRDC=  0.000000000000000    
!VIBCNT=  0.000000000000000    
!RGHFCNT=  0.000000000000000    
!SURFREC=  0.000000000000000    
!XSURFREC=  0.000000000000000    
!XPOLYREC=  0.000000000000000    
!ROTREC=  0.000000000000000    
!POLYREC=  0.000000000000000    
!DIPREC=  0.000000000000000    
!DIP4DREC=  0.000000000000000    
!DIPROT=  0.000000000000000    
!DIP4DROT=  0.000000000000000    
!PTREC=  0.000000000000000    
!PT4DREC=  0.000000000000000    
!VSCFREC=  0.000000000000000    
!VCIREC=  0.000000000000000    
!PVCIREC=  0.000000000000000    
!VMP2REC=  0.000000000000000    
!VMCSCFREC=  0.000000000000000    
!VMRCIREC=  0.000000000000000    
!VIBSTATEREC=  0.000000000000000    
!VIBSTATECNT=  0.000000000000000    
!VIBINFO=  0.000000000000000    
!GAREC=  0.000000000000000    
!SCFORB=  21002.00000000000    
!CIOCC=  4.000000000000000    
!CICORE=  1.000000000000000    
!DEFCORE=  1.000000000000000    
!SCORE=  0.000000000000000    
!CICLOS=  4.000000000000000    
!CIISTSYM=  1.000000000000000    
!CIISTMS2=  0.000000000000000    
!CIISTNEL=  14.00000000000000    
!NEWMOL= -1.000000000000000    
!NEWSYM= -1.000000000000000    
_SLFILES=slscratch
_NGSSTO=  9.000000000000000    
_SIN=SIN
_COS=COS
_TAN=TAN
_ACOS=ACOS
_ASIN=ASIN
_ATAN=ATAN
_COSH=COSH
_SINH=SINH
_TANH=TANH
_ABS=ABS
_MOD=MOD
_ERF=ERF
_REFC=REFC
_ERFC=ERFC
_HYPOT=HYPOT
_J0=J0
_J1=J1
_JN=JN
_GAMMA=GAMMA
_LGAMMA=LGAMMA
_Y0=Y0
_Y1=Y1
_YN=YN
_EXP=EXP
_LOG=LOG
_LOG10=LOG10
_SQRT=SQRT
_INT=INT
_NINT=NINT
_MAX=MAX
_MIN=MIN
_COSMO=  0.000000000000000    
_COSMOIT=  0.000000000000000    
_COSMOES=  0.000000000000000    
_COSMOEDS=  0.000000000000000    
_COSMOEC=  0.000000000000000    
_COSMOEDCORR=  0.000000000000000    
_FEPSI=  1.000000000000000    
_SL_IsMM=  0.000000000000000    
_SL_NSYM=  4.000000000000000    
_SL_System_BitSw=  0.000000000000000    
_SL_Unique_atoms=  0.000000000000000    
_SL_GRAD=  0.000000000000000    
_SL_MAXUPD_Hess=  5.000000000000000    
_SL_N_PRINT_COD=  5.000000000000000    
_SL_PRINT_CODES=  0.000000000000000    
_SL_BasType=  0.000000000000000    
_SL_Energy_Pred=  0.000000000000000    
_SL_New_Coords=  0.000000000000000    
_SL_Total_Nuclea=  0.000000000000000    
_SL_Highest_Mltp=  0.000000000000000    
_SL_Ref_Geom=  0.000000000000000    
_SL_Symmetry_ope=  4.000000000000000    
_SL_agrad=  0.000000000000000    
_SL_GrdMax=  0.000000000000000    
_SL_GrdNorm=  0.000000000000000    
_SL_GrdRMS=  0.000000000000000    
_SL_Hss_Q=  0.000000000000000    
_SL_Hss_X=  0.000000000000000    
_SL_BMxOld=  0.000000000000000    
_SL_KtB=  0.000000000000000    
_SL_TROld=  0.000000000000000    
_SL_No_of_Intern=  0.000000000000000    
_SL_Hess=  0.000000000000000    
_SL_K=  0.000000000000000    
!LATTICE= -1.000000000000000    
!NEWLATTICE=  0.000000000000000    
!LATGRAD_VAR=FALSE
!SEW_LATTICE=  1.000000000000000    
!AIC_ONEEL=  0.000000000000000    
!LOCAL=  0.000000000000000    
!SAVEDOM= -1.000000000000000    
!RESTDOM= -1.000000000000000    
!SAVEDOM_HF= -1.000000000000000    
!RESTDOM_HF= -1.000000000000000    
!HESSREC=  5300.200000000000    
!FREQREC=  5400.200000000000    
!NMODREC=  5450.200000000000    
!GTASKS=  0.000000000000000    
!HTASKS=  0.000000000000000    
!SAVEDOM_EOM= -1.000000000000000    
!RESTDOM_EOM= -1.000000000000000    
!GRADSTATE= -1.000000000000000    
!DEBUG=  0.000000000000000    
!CFIT_CPHF=  0.000000000000000    
!RDOMAUX_CPHF=  0.000000000000000    
!THRAO_CPHF= 0.1000000000000000E-11
!THRMO_CPHF= 0.1000000000000000E-11
!THROV_CPHF= 0.1000000000000000E-11
!THRSW_CPHF= 0.1000000000000000E-11
!THRPROD_CPHF= 0.1000000000000000E-11
!THRAOPR_CPHF= 0.1000000000000000E-11
!CFIT_SCFGRD=  0.000000000000000    
!RDOMAUX_SCFGRD=  0.000000000000000    
!THRAO_SCFGRD= 0.1000000000000000E-11
!THRMO_SCFGRD= 0.1000000000000000E-11
!THROV_SCFGRD= 0.1000000000000000E-11
!THRSW_SCFGRD= 0.1000000000000000E-11
!THRPROD_SCFGRD= 0.1000000000000000E-11
!THRAOPR_SCFGRD= 0.1000000000000000E-11
!LOCFIT_SCF=  0.000000000000000    
!LOCFIT_MP2=  0.000000000000000    
_RIDOM=  0.000000000000000    
!CC2_METHOD=  0.000000000000000    
_BASIS2006=FALSE
_SVDDEL= -1.000000000000000    
_SVDDELA= -1.000000000000000    
_SVDDELP= -1.000000000000000    
_SVDDELF= -1.000000000000000    
_SVDDELS= -1.000000000000000    
_SVDDEL_ABS= -1.000000000000000    
_SVDDELA_ABS= -1.000000000000000    
_SVDDELP_ABS= -1.000000000000000    
_SVDDELF_ABS= -1.000000000000000    
_SVDDELS_ABS= -1.000000000000000    
_MAXBASIS=  0.000000000000000    
!OPT_CONICAL=  0.000000000000000    
!CLEARSP_JGRID=  0.000000000000000    
_GRDHYBR=  0.000000000000000    
_STATEGRAD=  1.000000000000000    
_4EXT_NDISKS=  1.000000000000000    
!EMBEDFLAG=  1.000000000000000    
!EMBED=FALSE
!EMBED_F12=FALSE
!EMBEDNUC=  0.000000000000000    
_EMBEDENERGY=  0.000000000000000    
!EMBED_DFC=FALSE
!NUM_VOIDS=  0.000000000000000    
_IBODY=  0.000000000000000    
_EMBE_CORR=  0.000000000000000    
!EMBED_PROJ=FALSE
!EMB_PROJ_ZMU=  1000000.000000000    
!CORRECTION_HF=  0.000000000000000    
!EMBED_AORB=  0.000000000000000    
!EMBED_NACORR=  0.000000000000000    
!EMBED_MP2=FALSE
!EMBED_TRUNC_PERTURBATION=FALSE
!EMBED_FROZEN=  0.000000000000000    
!EMBED_ACTIVE=  0.000000000000000    
_CHANGE_BASIS=FALSE
_RESTORE_BASIS=FALSE
_FIX_EMBED_GUESS=FALSE
_EMBED_SCF=FALSE
_HUZINAGA_T=FALSE
_HUZINAGA_F=FALSE
_HUZINAGA=FALSE
_HUZINAGA_CORRECT=FALSE
!FASTLATGRAD=  1.000000000000000    
!FASTVLAMBDA= -1.000000000000000    
!IFORCE= -1.000000000000000    
!USESYM= -1.000000000000000    
_SINDEX=  0.000000000000000    
_AVDOM_OSV=  0.000000000000000    
_AVDOM_PNO=  0.000000000000000    
_AVDOM_PAO=  0.000000000000000    
_AVDOM_LMO=  0.000000000000000    
_CC2OSV_FLAG=  0.000000000000000    
_EOMCCSD_CONV=FALSE
_TMADC2_FLAG=FALSE
_PROPADC2_FLAG=FALSE
_LEN_VirQ=  0.000000000000000    
_GRDCC2LR_FLAG=FALSE
_GRDADC2_FLAG=FALSE
_RO_VGLOBAL=  0.000000000000000    
_OPT=FALSE
_FREQ=FALSE
_HESS=FALSE
_CMRCC_callName=EMPTY
_CMRCC_callCount=  0.000000000000000    
_GECCO_CIROOT=  1.000000000000000    
_SYM_CATION=  1.000000000000000    
_MON_A=FALSE
_MON_B=FALSE
B1=  1.088371153988630    
B2=  1.523395381284385    
A1=  111.2277375253859    
GX1= 0.9585859465475475    
GY1=  1.660319562841858    
GZ1= -2.184089952961512    
GX2=-0.4996003610813204E-15
GY2= 0.2220446049250313E-15
GZ2= -1.439400025073669    
GX3= 0.7771561172376096E-15
GY3= 0.1665334536937735E-15
GZ3=  1.439400025073669    
GX4=-0.9585859465475474    
GY4= -1.660319562841857    
GZ4=  2.184089952961510    
GX5=-0.9585859465475467    
GY5=  1.660319562841858    
GZ5=  2.184089952961512    
GX6=  1.917171893095098    
GY6= 0.3469446951953614E-15
GZ6=  2.184089952961512    
GX7= -1.917171893095098    
GY7= 0.4857225732735060E-15
GZ7= -2.184089952961513    
GX8= 0.9585859465475467    
GY8= -1.660319562841857    
GZ8= -2.184089952961512    
H1X1= 0.9585859465475471    
H1Y1=  1.660319562841857    
H1Z1= -2.184089952961512    
C1X2=  0.000000000000000    
C1Y2=  0.000000000000000    
C1Z2= -1.439400025073669    
C2X3=  0.000000000000000    
C2Y3=  0.000000000000000    
C2Z3=  1.439400025073669    
H2X4=-0.9585859465475471    
H2Y4= -1.660319562841857    
H2Z4=  2.184089952961512    
H3X5=-0.9585859465475471    
H3Y5=  1.660319562841857    
H3Z5=  2.184089952961512    
H4X6=  1.917171893095098    
H4Y6=  0.000000000000000    
H4Z6=  2.184089952961513    
H5X7= -1.917171893095098    
H5Y7=  0.000000000000000    
H5Z7= -2.184089952961513    
H6X8= 0.9585859465475471    
H6Y8= -1.660319562841857    
H6Z8= -2.184089952961512    
[Atoms] Angs
H     1    1         0.5072618376        0.8786032755       -1.1557706297
C     2    6         0.0000000000        0.0000000000       -0.7616976906
C     3    6         0.0000000000        0.0000000000        0.7616976906
H     4    1        -0.5072618376       -0.8786032755        1.1557706297
H     5    1        -0.5072618376        0.8786032755        1.1557706297
H     6    1         1.0145236752        0.0000000000        1.1557706297
H     7    1        -1.0145236752        0.0000000000       -1.1557706297
H     8    1         0.5072618376       -0.8786032755       -1.1557706297
[GTO]
   1 0
 s    5  1.00
  0.3387000000D+02  0.6067999217D-02
  0.5095000000D+01  0.4530799416D-01
  0.1159000000D+01  0.2028219738D+00
  0.3258000000D+00  0.5039029350D+00
  0.1027000000D+00  0.3834209505D+00
 s    5  1.00
  0.3387000000D+02  0.0000000000D+00
  0.5095000000D+01  0.0000000000D+00
  0.1159000000D+01  0.0000000000D+00
  0.3258000000D+00  0.1000000000D+01
  0.1027000000D+00  0.0000000000D+00
 s    5  1.00
  0.3387000000D+02  0.0000000000D+00
  0.5095000000D+01  0.0000000000D+00
  0.1159000000D+01  0.0000000000D+00
  0.3258000000D+00  0.0000000000D+00
  0.1027000000D+00  0.1000000000D+01
 p    1  1.00
  0.1407000000D+01  0.1000000000D+01
 p    1  1.00
  0.3880000000D+00  0.1000000000D+01
 d    1  1.00
  0.1057000000D+01  0.1000000000D+01
  
   4 0
 s    5  1.00
  0.3387000000D+02  0.6067999217D-02
  0.5095000000D+01  0.4530799416D-01
  0.1159000000D+01  0.2028219738D+00
  0.3258000000D+00  0.5039029350D+00
  0.1027000000D+00  0.3834209505D+00
 s    5  1.00
  0.3387000000D+02  0.0000000000D+00
  0.5095000000D+01  0.0000000000D+00
  0.1159000000D+01  0.0000000000D+00
  0.3258000000D+00  0.1000000000D+01
  0.1027000000D+00  0.0000000000D+00
 s    5  1.00
  0.3387000000D+02  0.0000000000D+00
  0.5095000000D+01  0.0000000000D+00
  0.1159000000D+01  0.0000000000D+00
  0.3258000000D+00  0.0000000000D+00
  0.1027000000D+00  0.1000000000D+01
 p    1  1.00
  0.1407000000D+01  0.1000000000D+01
 p    1  1.00
  0.3880000000D+00  0.1000000000D+01
 d    1  1.00
  0.1057000000D+01  0.1000000000D+01
  
   5 0
 s    5  1.00
  0.3387000000D+02  0.6067999217D-02
  0.5095000000D+01  0.4530799416D-01
  0.1159000000D+01  0.2028219738D+00
  0.3258000000D+00  0.5039029350D+00
  0.1027000000D+00  0.3834209505D+00
 s    5  1.00
  0.3387000000D+02  0.0000000000D+00
  0.5095000000D+01  0.0000000000D+00
  0.1159000000D+01  0.0000000000D+00
  0.3258000000D+00  0.1000000000D+01
  0.1027000000D+00  0.0000000000D+00
 s    5  1.00
  0.3387000000D+02  0.0000000000D+00
  0.5095000000D+01  0.0000000000D+00
  0.1159000000D+01  0.0000000000D+00
  0.3258000000D+00  0.0000000000D+00
  0.1027000000D+00  0.1000000000D+01
 p    1  1.00
  0.1407000000D+01  0.1000000000D+01
 p    1  1.00
  0.3880000000D+00  0.1000000000D+01
 d    1  1.00
  0.1057000000D+01  0.1000000000D+01
  
   8 0
 s    5  1.00
  0.3387000000D+02  0.6067999217D-02
  0.5095000000D+01  0.4530799416D-01
  0.1159000000D+01  0.2028219738D+00
  0.3258000000D+00  0.5039029350D+00
  0.1027000000D+00  0.3834209505D+00
 s    5  1.00
  0.3387000000D+02  0.0000000000D+00
  0.5095000000D+01  0.0000000000D+00
  0.1159000000D+01  0.0000000000D+00
  0.3258000000D+00  0.1000000000D+01
  0.1027000000D+00  0.0000000000D+00
 s    5  1.00
  0.3387000000D+02  0.0000000000D+00
  0.5095000000D+01  0.0000000000D+00
  0.1159000000D+01  0.0000000000D+00
  0.3258000000D+00  0.0000000000D+00
  0.1027000000D+00  0.1000000000D+01
 p    1  1.00
  0.1407000000D+01  0.1000000000D+01
 p    1  1.00
  0.3880000000D+00  0.1000000000D+01
 d    1  1.00
  0.1057000000D+01  0.1000000000D+01
  
   2 0
 s   10  1.00
  0.8236000000D+04  0.5309998617D-03
  0.1235000000D+04  0.4107998930D-02
  0.2808000000D+03  0.2108699451D-01
  0.7927000000D+02  0.8185297868D-01
  0.2559000000D+02  0.2348169388D+00
  0.8997000000D+01  0.4344008869D+00
  0.3319000000D+01  0.3461289099D+00
  0.9059000000D+00  0.3937798974D-01
  0.3643000000D+00 -0.8982997660D-02
  0.1285000000D+00  0.2384999379D-02
 s   10  1.00
  0.8236000000D+04 -0.1129999414D-03
  0.1235000000D+04 -0.8779995449D-03
  0.2808000000D+03 -0.4539997647D-02
  0.7927000000D+02 -0.1813299060D-01
  0.2559000000D+02 -0.5575997110D-01
  0.8997000000D+01 -0.1268949342D+00
  0.3319000000D+01 -0.1703519117D+00
  0.9059000000D+00  0.1403819272D+00
  0.3643000000D+00  0.5986836897D+00
  0.1285000000D+00  0.3953887950D+00
 s   10  1.00
  0.8236000000D+04  0.0000000000D+00
  0.1235000000D+04  0.0000000000D+00
  0.2808000000D+03  0.0000000000D+00
  0.7927000000D+02  0.0000000000D+00
  0.2559000000D+02  0.0000000000D+00
  0.8997000000D+01  0.0000000000D+00
  0.3319000000D+01  0.0000000000D+00
  0.9059000000D+00  0.1000000000D+01
  0.3643000000D+00  0.0000000000D+00
  0.1285000000D+00  0.0000000000D+00
 s   10  1.00
  0.8236000000D+04  0.0000000000D+00
  0.1235000000D+04  0.0000000000D+00
  0.2808000000D+03  0.0000000000D+00
  0.7927000000D+02  0.0000000000D+00
  0.2559000000D+02  0.0000000000D+00
  0.8997000000D+01  0.0000000000D+00
  0.3319000000D+01  0.0000000000D+00
  0.9059000000D+00  0.0000000000D+00
  0.3643000000D+00  0.0000000000D+00
  0.1285000000D+00  0.1000000000D+01
 p    5  1.00
  0.1871000000D+02  0.1403099838D-01
  0.4133000000D+01  0.8686598995D-01
  0.1200000000D+01  0.2902159664D+00
  0.3827000000D+00  0.5010079421D+00
  0.1209000000D+00  0.3434059603D+00
 p    5  1.00
  0.1871000000D+02  0.0000000000D+00
  0.4133000000D+01  0.0000000000D+00
  0.1200000000D+01  0.0000000000D+00
  0.3827000000D+00  0.1000000000D+01
  0.1209000000D+00  0.0000000000D+00
 p    5  1.00
  0.1871000000D+02  0.0000000000D+00
  0.4133000000D+01  0.0000000000D+00
  0.1200000000D+01  0.0000000000D+00
  0.3827000000D+00  0.0000000000D+00
  0.1209000000D+00  0.1000000000D+01
 d    1  1.00
  0.1097000000D+01  0.1000000000D+01
 d    1  1.00
  0.3180000000D+00  0.1000000000D+01
 f    1  1.00
  0.7610000000D+00  0.1000000000D+01
  
   3 0
 s   10  1.00
  0.8236000000D+04  0.5309998617D-03
  0.1235000000D+04  0.4107998930D-02
  0.2808000000D+03  0.2108699451D-01
  0.7927000000D+02  0.8185297868D-01
  0.2559000000D+02  0.2348169388D+00
  0.8997000000D+01  0.4344008869D+00
  0.3319000000D+01  0.3461289099D+00
  0.9059000000D+00  0.3937798974D-01
  0.3643000000D+00 -0.8982997660D-02
  0.1285000000D+00  0.2384999379D-02
 s   10  1.00
  0.8236000000D+04 -0.1129999414D-03
  0.1235000000D+04 -0.8779995449D-03
  0.2808000000D+03 -0.4539997647D-02
  0.7927000000D+02 -0.1813299060D-01
  0.2559000000D+02 -0.5575997110D-01
  0.8997000000D+01 -0.1268949342D+00
  0.3319000000D+01 -0.1703519117D+00
  0.9059000000D+00  0.1403819272D+00
  0.3643000000D+00  0.5986836897D+00
  0.1285000000D+00  0.3953887950D+00
 s   10  1.00
  0.8236000000D+04  0.0000000000D+00
  0.1235000000D+04  0.0000000000D+00
  0.2808000000D+03  0.0000000000D+00
  0.7927000000D+02  0.0000000000D+00
  0.2559000000D+02  0.0000000000D+00
  0.8997000000D+01  0.0000000000D+00
  0.3319000000D+01  0.0000000000D+00
  0.9059000000D+00  0.1000000000D+01
  0.3643000000D+00  0.0000000000D+00
  0.1285000000D+00  0.0000000000D+00
 s   10  1.00
  0.8236000000D+04  0.0000000000D+00
  0.1235000000D+04  0.0000000000D+00
  0.2808000000D+03  0.0000000000D+00
  0.7927000000D+02  0.0000000000D+00
  0.2559000000D+02  0.0000000000D+00
  0.8997000000D+01  0.0000000000D+00
  0.3319000000D+01  0.0000000000D+00
  0.9059000000D+00  0.0000000000D+00
  0.3643000000D+00  0.0000000000D+00
  0.1285000000D+00  0.1000000000D+01
 p    5  1.00
  0.1871000000D+02  0.1403099838D-01
  0.4133000000D+01  0.8686598995D-01
  0.1200000000D+01  0.2902159664D+00
  0.3827000000D+00  0.5010079421D+00
  0.1209000000D+00  0.3434059603D+00
 p    5  1.00
  0.1871000000D+02  0.0000000000D+00
  0.4133000000D+01  0.0000000000D+00
  0.1200000000D+01  0.0000000000D+00
  0.3827000000D+00  0.1000000000D+01
  0.1209000000D+00  0.0000000000D+00
 p    5  1.00
  0.1871000000D+02  0.0000000000D+00
  0.4133000000D+01  0.0000000000D+00
  0.1200000000D+01  0.0000000000D+00
  0.3827000000D+00  0.0000000000D+00
  0.1209000000D+00  0.1000000000D+01
 d    1  1.00
  0.1097000000D+01  0.1000000000D+01
 d    1  1.00
  0.3180000000D+00  0.1000000000D+01
 f    1  1.00
  0.7610000000D+00  0.1000000000D+01
  
   6 0
 s    5  1.00
  0.3387000000D+02  0.6067999217D-02
  0.5095000000D+01  0.4530799416D-01
  0.1159000000D+01  0.2028219738D+00
  0.3258000000D+00  0.5039029350D+00
  0.1027000000D+00  0.3834209505D+00
 s    5  1.00
  0.3387000000D+02  0.0000000000D+00
  0.5095000000D+01  0.0000000000D+00
  0.1159000000D+01  0.0000000000D+00
  0.3258000000D+00  0.1000000000D+01
  0.1027000000D+00  0.0000000000D+00
 s    5  1.00
  0.3387000000D+02  0.0000000000D+00
  0.5095000000D+01  0.0000000000D+00
  0.1159000000D+01  0.0000000000D+00
  0.3258000000D+00  0.0000000000D+00
  0.1027000000D+00  0.1000000000D+01
 p    1  1.00
  0.1407000000D+01  0.1000000000D+01
 p    1  1.00
  0.3880000000D+00  0.1000000000D+01
 d    1  1.00
  0.1057000000D+01  0.1000000000D+01
  
   7 0
 s    5  1.00
  0.3387000000D+02  0.6067999217D-02
  0.5095000000D+01  0.4530799416D-01
  0.1159000000D+01  0.2028219738D+00
  0.3258000000D+00  0.5039029350D+00
  0.1027000000D+00  0.3834209505D+00
 s    5  1.00
  0.3387000000D+02  0.0000000000D+00
  0.5095000000D+01  0.0000000000D+00
  0.1159000000D+01  0.0000000000D+00
  0.3258000000D+00  0.1000000000D+01
  0.1027000000D+00  0.0000000000D+00
 s    5  1.00
  0.3387000000D+02  0.0000000000D+00
  0.5095000000D+01  0.0000000000D+00
  0.1159000000D+01  0.0000000000D+00
  0.3258000000D+00  0.0000000000D+00
  0.1027000000D+00  0.1000000000D+01
 p    1  1.00
  0.1407000000D+01  0.1000000000D+01
 p    1  1.00
  0.3880000000D+00  0.1000000000D+01
 d    1  1.00
  0.1057000000D+01  0.1000000000D+01


[MO]
 Sym=      1.1
 Ene=     -11.2101
 Spin= Alpha
 Occup=    2.000000
1 0.000534942289192
2 -0.000996862675815
3 -0.000808402557365
4 0.000104129837718
5 0.000180358127800
6 -0.000103527961344
7 0.000113279111695
8 0.000196205527497
9 -0.000282941377332
10 0.000049419346940
11 -0.000057527506961
12 0.000008108160020
13 -0.000106946773629
14 0.000078004400720
15 0.000135107567431
16 0.000534942289192
17 -0.000996862675815
18 -0.000808402557365
19 -0.000104129837718
20 -0.000180358127800
21 0.000103527961344
22 -0.000113279111695
23 -0.000196205527497
24 0.000282941377332
25 0.000049419346940
26 -0.000057527506961
27 0.000008108160020
28 -0.000106946773629
29 0.000078004400720
30 0.000135107567431
31 0.000534942289192
32 -0.000996862675815
33 -0.000808402557365
34 -0.000104129837718
35 0.000180358127800
36 0.000103527961344
37 -0.000113279111695
38 0.000196205527497
39 0.000282941377332
40 0.000049419346940
41 -0.000057527506961
42 0.000008108160020
43 0.000106946773629
44 0.000078004400720
45 -0.000135107567431
46 0.000534942289192
47 -0.000996862675815
48 -0.000808402557365
49 0.000104129837718
50 -0.000180358127800
51 -0.000103527961344
52 0.000113279111695
53 -0.000196205527497
54 -0.000282941377332
55 0.000049419346940
56 -0.000057527506961
57 0.000008108160020
58 0.000106946773629
59 0.000078004400720
60 -0.000135107567431
61 0.70683724257136
62 0.002507436683041
63 0.001160948104322
64 0.001304191263929
65 -0.000000000292659
66 0.0
67 0.000534215759727
68 0.000000001832893
69 0.0
70 -0.000518278845303
71 0.000000001049007
72 0.0
73 -0.000442496264142
74 0.000059632690077
75 0.000059632861643
76 -0.000119265551720
77 0.0
78 -0.000000000068286
79 0.0
80 0.000229156565036
81 0.000229157422727
82 -0.000458313987764
83 0.0
84 -0.000000000737411
85 0.0
86 -0.000405148495973
87 0.0
88 0.000163747945635
89 0.000543563805470
90 0.0
91 -0.000109845387158
92 -0.000000000058684
93 0.0
94 -0.000109845535412
95 0.0
96 0.70683724257136
97 0.002507436683041
98 0.001160948104322
99 0.001304191263929
100 0.000000000292659
101 0.0
102 -0.000534215759727
103 -0.000000001832893
104 0.0
105 0.000518278845303
106 -0.000000001049007
107 0.0
108 0.000442496264142
109 0.000059632690077
110 0.000059632861643
111 -0.000119265551720
112 0.0
113 -0.000000000068286
114 0.0
115 0.000229156565036
116 0.000229157422727
117 -0.000458313987764
118 0.0
119 -0.000000000737411
120 0.0
121 0.000405148495973
122 0.0
123 -0.000163747945635
124 -0.000543563805470
125 0.0
126 0.000109845387158
127 0.000000000058684
128 0.0
129 0.000109845535412
130 0.0
131 0.000534942077941
132 -0.000996859540415
133 -0.000808401806568
134 0.000208259551486
135 0.0
136 0.000103527904155
137 0.000226557123356
138 0.0
139 0.000282940980914
140 -0.000111000689125
141 0.000102892605995
142 0.000008108083130
143 0.0
144 -0.000156008647975
145 0.0
146 0.000534942077941
147 -0.000996859540415
148 -0.000808401806568
149 -0.000208259551486
150 0.0
151 -0.000103527904155
152 -0.000226557123356
153 0.0
154 -0.000282940980914
155 -0.000111000689125
156 0.000102892605995
157 0.000008108083130
158 0.0
159 -0.000156008647975
160 0.0
 Sym=      1.3
 Ene=     -11.2095
 Spin= Alpha
 Occup=    2.000000
1 0.000522169708262
2 -0.001075825451767
3 -0.000729010385013
4 0.000118786209740
5 0.000205743735045
6 -0.000069819457841
7 0.000188802917004
8 0.000327016300140
9 -0.000034829698408
10 0.000016759856691
11 -0.000127094558184
12 0.000110334701494
13 -0.000143854411526
14 0.000054821356900
15 0.000094953382952
16 -0.000522169708262
17 0.001075825451767
18 0.000729010385013
19 0.000118786209740
20 0.000205743735045
21 -0.000069819457841
22 0.000188802917004
23 0.000327016300140
24 -0.000034829698408
25 -0.000016759856691
26 0.000127094558184
27 -0.000110334701494
28 0.000143854411526
29 -0.000054821356900
30 -0.000094953382952
31 -0.000522169708262
32 0.001075825451767
33 0.000729010385013
34 0.000118786209740
35 -0.000205743735045
36 -0.000069819457841
37 0.000188802917004
38 -0.000327016300140
39 -0.000034829698408
40 -0.000016759856691
41 0.000127094558184
42 -0.000110334701494
43 -0.000143854411526
44 -0.000054821356900
45 0.000094953382952
46 0.000522169708262
47 -0.001075825451767
48 -0.000729010385013
49 0.000118786209740
50 -0.000205743735045
51 -0.000069819457841
52 0.000188802917004
53 -0.000327016300140
54 -0.000034829698408
55 0.000016759856691
56 -0.000127094558184
57 0.000110334701494
58 0.000143854411526
59 0.000054821356900
60 -0.000094953382952
61 0.70692267364252
62 0.002185688292834
63 0.000949358219382
64 0.003677331927147
65 -0.000000000149614
66 0.0
67 -0.000340215513331
68 0.000000000950552
69 0.0
70 -0.000638262821193
71 0.000000000548941
72 0.0
73 0.000724442309718
74 0.000049766191037
75 0.000049766271882
76 -0.000099532462919
77 0.0
78 -0.000000000058938
79 0.0
80 -0.000005936636761
81 -0.000005935943944
82 0.000011872580704
83 0.0
84 -0.000000000216652
85 0.0
86 -0.000317430123434
87 0.0
88 0.000643547935163
89 0.000425877243088
90 0.0
91 -0.000431705047783
92 -0.000000000042625
93 0.0
94 -0.000431705110099
95 0.0
96 -0.70692267364252
97 -0.002185688292834
98 -0.000949358219382
99 -0.003677331927147
100 -0.000000000149614
101 0.0
102 -0.000340215513331
103 0.000000000950552
104 0.0
105 -0.000638262821193
106 0.000000000548941
107 0.0
108 0.000724442309718
109 -0.000049766191037
110 -0.000049766271882
111 0.000099532462919
112 0.0
113 0.000000000058938
114 0.0
115 0.000005936636761
116 0.000005935943944
117 -0.000011872580704
118 0.0
119 0.000000000216652
120 0.0
121 -0.000317430123434
122 0.0
123 0.000643547935163
124 0.000425877243088
125 0.0
126 -0.000431705047783
127 -0.000000000042625
128 0.0
129 -0.000431705110099
130 0.0
131 -0.000522169646461
132 0.001075823833375
133 0.000729009836470
134 -0.000237572353166
135 0.0
136 -0.000069819458340
137 -0.000377605210140
138 0.0
139 -0.000034829297110
140 0.000199021681327
141 -0.000088686997489
142 -0.000110334683837
143 0.0
144 0.000109642635072
145 0.0
146 0.000522169646461
147 -0.001075823833375
148 -0.000729009836470
149 -0.000237572353166
150 0.0
151 -0.000069819458340
152 -0.000377605210140
153 0.0
154 -0.000034829297110
155 -0.000199021681327
156 0.000088686997489
157 0.000110334683837
158 0.0
159 -0.000109642635072
160 0.0
 Sym=      2.1
 Ene=      -1.0190
 Spin= Alpha
 Occup=    2.000000
1 0.21856811295178
2 -0.056647294520624
3 -0.078917025840766
4 -0.002186864098048
5 -0.003787759784079
6 0.002379194659347
7 -0.000114575589703
8 -0.000198449949046
9 0.001938556504179
10 -0.000368900039720
11 -0.000039520764193
12 0.000408420803913
13 0.000329379450843
14 -0.000329817448783
15 -0.000571260606996
16 0.21856811295178
17 -0.056647294520624
18 -0.078917025840766
19 0.002186864098048
20 0.003787759784079
21 -0.002379194659347
22 0.000114575589703
23 0.000198449949046
24 -0.001938556504179
25 -0.000368900039720
26 -0.000039520764193
27 0.000408420803913
28 0.000329379450843
29 -0.000329817448783
30 -0.000571260606996
31 0.21856811295178
32 -0.056647294520624
33 -0.078917025840766
34 0.002186864098048
35 -0.003787759784079
36 -0.002379194659347
37 0.000114575589703
38 -0.000198449949046
39 -0.001938556504179
40 -0.000368900039720
41 -0.000039520764193