
 Working directory              : /scratch/ddi/mpscr/molpro.DcD7eqavs0/
 Global scratch directory       : /scratch/ddi/mpscr/molpro.DcD7eqavs0/
 Wavefunction directory         : /home/ddi/storage_4/Kemal/C2H6/
 Main file repository           : /home/ddi/storage_4/Kemal/C2H6/

 id        : liedlgroup

 Nodes     nprocs
 ae2-c724    12
 GA implementation: MPI file
 GA implementation (serial work in mppx): MPI file

 Using customized tuning parameters: mindgm=1; mindgv=20; mindgc=4; mindgr=1; noblas=0; minvec=7
 default implementation of scratch files=sf  


 Variables initialized (1015), CPU time= 0.01 sec
 ***,c2h6 (ethane) vibrational spectrum
 memory,256,M
 
 orient,mass
 geometry={
 H1
 C1,H1,B1
 C2,C1,B2,H1,A1
 H2,C2,B1,C1,A1,H1,180.0
 H3,C2,B1,C1,A1,H1,60.0
 H4,C2,B1,C1,A1,H1,-60.0
 H5,C1,B1,C2,A1,H2,60.0
 H6,C1,B1,C2,A1,H2,-60.0
 }
 B1= 1.08617963 ANG
 B2= 1.00 ANG
 A1= 109.47122029 DEGREE
 
 mass,iso
 basis=vtz
 {hf
 start,atden}
 mp2
 optg
 frequencies,symm=auto,print=0
 put,molden,c2h6_molden.dat
 
 Commands initialized (818), CPU time= 0.01 sec, 672 directives.
 Default parameters read. Elapsed time= 0.08 sec

 Checking input...
 Passed
1


                                         ***  PROGRAM SYSTEM MOLPRO  ***
                                       Copyright, TTI GmbH Stuttgart, 2015
                                    Version 2022.1 linked Jan 25 2022 12:44:58


 **********************************************************************************************************************************
 LABEL *   c2h6 (ethane) vibrational spectrum                                            
  64 bit mpp version                                                                     DATE: 23-Feb-22          TIME: 22:50:48  
 **********************************************************************************************************************************

 SHA1:             f3d4322b9bdbeed63a35be676bd653804e8a9433
 **********************************************************************************************************************************

 Memory per process:       256 MW
 Total memory per node:   3072 MW

 GA preallocation disabled
 GA check disabled

 Variable memory set to 256.0 MW

 ZCENTRE=MASS

 SETTING B1             =         1.08617963  ANG                             
 SETTING B2             =         1.00000000  ANG                             
 SETTING A1             =       109.47122029  DEGREE                          


 Using masses of most abundant isotopes

 **********************************************************************************************************************************
 SETTING BASIS          =    VTZ


 Recomputing integrals since basis changed


 Using spherical harmonics

 Library entry H      S cc-pVTZ              selected for orbital group  1
 Library entry H      P cc-pVTZ              selected for orbital group  1
 Library entry H      D cc-pVTZ              selected for orbital group  1
 Library entry C      S cc-pVTZ              selected for orbital group  2
 Library entry C      P cc-pVTZ              selected for orbital group  2
 Library entry C      D cc-pVTZ              selected for orbital group  2
 Library entry C      F cc-pVTZ              selected for orbital group  2


 PROGRAM * SEWARD (Integral evaluation for generally contracted gaussian basis sets)     Author: Roland Lindh, 1990

 Geometry written to block  1 of record 700

 Orientation using atomic masses  
 Molecule type: Symmetric top,     Order of principal axis = 3
 Symmetry elements: Y,XZ
 Rotational constants:      36.9848447     36.9848447     79.6948072 GHz

 Point group  C2h 



 ATOMIC COORDINATES

 NR  ATOM    CHARGE       X              Y              Z

   1  H1      1.00    0.967596447    1.675926207   -1.629057058
   2  H2      1.00   -0.967596447   -1.675926207    1.629057058
   3  H3      1.00   -0.967596447    1.675926207    1.629057058
   4  H6      1.00    0.967596447   -1.675926207   -1.629057058
   5  C1      6.00    0.000000000    0.000000000   -0.944863062
   6  C2      6.00    0.000000000    0.000000000    0.944863062
   7  H4      1.00    1.935192894    0.000000000    1.629057058
   8  H5      1.00   -1.935192894    0.000000000   -1.629057058

 Bond lengths in Bohr (Angstrom)

 1-5  2.052582023  2-6  2.052582023  3-6  2.052582023  4-5  2.052582023  5-6  1.889726125
     ( 1.086179630)     ( 1.086179630)     ( 1.086179630)     ( 1.086179630)     ( 1.000000000)

 5-8  2.052582023  6-7  2.052582023
     ( 1.086179630)     ( 1.086179630)

 Bond angles

  1-5-4  109.47122098   1-5-6  109.47122029   1-5-8  109.47122098   2-6-3  109.47122098

  2-6-5  109.47122029   2-6-7  109.47122098   3-6-5  109.47122029   3-6-7  109.47122098

  4-5-6  109.47122029   4-5-8  109.47122098   5-6-7  109.47122029   6-5-8  109.47122029

 NUCLEAR CHARGE:                   18
 NUMBER OF PRIMITIVE AOS:         196
 NUMBER OF SYMMETRY AOS:          180
 NUMBER OF CONTRACTIONS:          144   (   44Ag  +   28Au  +   44Bu  +   28Bg  )
 NUMBER OF INNER CORE ORBITALS:     0   (    0Ag  +    0Au  +    0Bu  +    0Bg  )
 NUMBER OF OUTER CORE ORBITALS:     2   (    1Ag  +    0Au  +    1Bu  +    0Bg  )
 NUMBER OF VALENCE ORBITALS:       14   (    5Ag  +    2Au  +    5Bu  +    2Bg  )


 NUCLEAR REPULSION ENERGY   51.73486841


 Eigenvalues of metric

         1 0.104E-02 0.118E-02 0.282E-02 0.390E-02 0.685E-02 0.994E-02 0.127E-01 0.150E-01
         2 0.184E-02 0.641E-02 0.151E-01 0.211E-01 0.372E-01 0.535E-01 0.800E-01 0.101E+00
         3 0.326E-03 0.680E-03 0.148E-02 0.184E-02 0.641E-02 0.907E-02 0.151E-01 0.165E-01
         4 0.118E-02 0.390E-02 0.994E-02 0.150E-01 0.384E-01 0.437E-01 0.644E-01 0.810E-01


 Contracted 2-electron integrals neglected if value below      1.0D-11
 AO integral compression algorithm  1   Integral accuracy      1.0D-11

     84.410 MB (compressed) written to integral file ( 55.7%)

     Node minimum: 4.981 MB, node maximum: 8.651 MB


 NUMBER OF SORTED TWO-ELECTRON INTEGRALS:    1153464.     BUFFER LENGTH:  32768
 NUMBER OF SEGMENTS:   1  SEGMENT LENGTH:    1153464      RECORD LENGTH: 524288

 Memory used in sort:       1.71 MW

 SORT1 READ    18813848. AND WROTE     1129058. INTEGRALS IN      4 RECORDS. CPU TIME:     0.27 SEC, REAL TIME:     0.29 SEC
 SORT2 READ    13691155. AND WROTE    13957892. INTEGRALS IN    360 RECORDS. CPU TIME:     0.04 SEC, REAL TIME:     0.06 SEC

 Node minimum:     1149538.  Node maximum:     1169184. integrals

 OPERATOR DM      FOR CENTER  0  COORDINATES:    0.000000    0.000000    0.000000


 **********************************************************************************************************************************
 DATASETS  * FILE   NREC   LENGTH (MB)   RECORD NAMES
              1      18       28.86       500      610      700      900      950      970     1000      129      960     1100   
                                          VAR    BASINP    GEOM    SYMINP    ZMAT    AOBASIS   BASIS     P2S    ABASIS      S 
                                         1400     1410     1200     1210     1080     1600     1650     1700   
                                           T        V       H0       H01     AOSYM     SMH    MOLCAS    OPER   

 PROGRAMS   *        TOTAL       INT
 CPU TIMES  *         0.79      0.66
 REAL TIME  *         1.18 SEC
 DISK USED  *        29.22 MB (local),      605.74 MB (total)
 GA USED    *         0.00 MB       (max)       0.00 MB       (current)
 **********************************************************************************************************************************


 Program * Restricted Hartree-Fock

 Orbital guess generated from atomic densities. Full valence occupancy:    6   2   6   2

 Initial occupancy:   4   1   3   1

 NELEC=   18   SYM=1   MS2= 0   THRE=1.0D-08   THRD=1.0D-06   THRG=1.0D-06  HFMA2=F  DIIS_START=2   DIIS_MAX=10   DIIS_INCORE=F

 Level shifts:    0.00 (CLOSED)    0.00 (OPEN)    0.30 (GAP_MIN)

 ITER           ETOT              DE          GRAD        DDIFF     DIIS  NEXP   TIME(IT)  TIME(TOT)  DIAG
   1      -78.72826602     -78.72826602     0.00D+00     0.13D+00     0     0       0.00      0.01    start
   2      -78.79771607      -0.06945005     0.18D-01     0.25D-01     1     0       0.00      0.01    diag
   3      -78.82298766      -0.02527159     0.93D-02     0.94D-02     2     0       0.01      0.02    diag
   4      -78.82384585      -0.00085818     0.12D-02     0.19D-02     3     0       0.00      0.02    diag
   5      -78.82386689      -0.00002104     0.16D-03     0.47D-03     4     0       0.01      0.03    diag
   6      -78.82386741      -0.00000053     0.22D-04     0.11D-03     5     0       0.00      0.03    diag
   7      -78.82386742      -0.00000001     0.34D-05     0.17D-04     6     0       0.00      0.03    diag
   8      -78.82386742      -0.00000000     0.59D-06     0.21D-05     7     0       0.00      0.03    fixocc
   9      -78.82386742      -0.00000000     0.72D-07     0.17D-06     8     0       0.00      0.03    diag
  10      -78.82386742      -0.00000000     0.76D-08     0.16D-07     0     0       0.01      0.04    diag/orth

 Final occupancy:   4   1   3   1

 !RHF STATE 1.1 Energy                -78.823867422996
  RHF One-electron energy            -206.712477385791
  RHF Two-electron energy              76.153741551748
  RHF Kinetic energy                   81.544354985956
  RHF Nuclear energy                   51.734868411047
  RHF Virial quotient                  -0.966637941235

 !RHF STATE 1.1 Dipole moment           0.00000000     0.00000000     0.00000000
 Dipole moment /Debye                   0.00000000     0.00000000     0.00000000

 Orbital energies:

           1.1          2.1          3.1          4.1          5.1          6.1
    -11.180187    -1.214620    -0.608349    -0.407242     0.143301     0.247739

           1.2          2.2          3.2
     -0.723075     0.171956     0.473388

           1.3          2.3          3.3          4.3          5.3
    -11.164488    -0.774218    -0.723075     0.171956     0.200913

           1.4          2.4          3.4
     -0.407242     0.247739     0.378467


 HOMO      4.1    -0.407242 =     -11.0816eV
 LUMO      5.1     0.143301 =       3.8994eV
 LUMO-HOMO         0.550544 =      14.9811eV

 Orbitals saved in record  2100.2


 **********************************************************************************************************************************
 DATASETS  * FILE   NREC   LENGTH (MB)   RECORD NAMES
              1      18       28.86       500      610      700      900      950      970     1000      129      960     1100   
                                          VAR    BASINP    GEOM    SYMINP    ZMAT    AOBASIS   BASIS     P2S    ABASIS      S 
                                         1400     1410     1200     1210     1080     1600     1650     1700   
                                           T        V       H0       H01     AOSYM     SMH    MOLCAS    OPER   

              2       4        0.52       700     1000      520     2100   
                                         GEOM     BASIS   MCVARS     RHF  

 PROGRAMS   *        TOTAL    HF-SCF       INT
 CPU TIMES  *         0.83      0.04      0.66
 REAL TIME  *         1.24 SEC
 DISK USED  *        29.80 MB (local),      612.74 MB (total)
 GA USED    *         0.00 MB       (max)       0.00 MB       (current)
 **********************************************************************************************************************************


 PROGRAM * MP2 (Closed-shell)     Authors: C. Hampel, H.-J. Werner, 1991, M. Deegan, P.J. Knowles, 1992


 Convergence thresholds:  THRVAR = 1.00D-12  THRDEN = 1.00D-08

 Number of core orbitals:           2 (   1   0   1   0 )
 Number of closed-shell orbitals:   7 (   3   1   2   1 )
 Number of external orbitals:     135 (  40  27  41  27 )

 Molecular orbitals read from record     2100.2  Type=RHF/CANONICAL  

 Number of N-1 electron functions:               7
 Number of N-2 electron functions:              28
 Number of singly external CSFs:               256
 Number of doubly external CSFs:            112921
 Total number of CSFs:                      113178

 Length of J-op  integral file:               0.00 MB
 Length of K-op  integral file:               0.37 MB

 Integral transformation finished. Total CPU:   0.02 sec, npass=  1  Memory used:   0.23 MW

 Memory needed for MP2:                      0.03 MW

 SCS-MP2 correlation energy:           -0.386436764707   (PS=  1.200000  PT=  0.333333)
 SCS-MP2 total energy:                -79.210304187703


  Reference energy                    -78.823867422996
  MP2 singlet pair energy              -0.258723226642
  MP2 triplet pair energy              -0.122092863327
  MP2 correlation energy               -0.380816089969

 !MP2 total energy                    -79.204683512965

 KEXT needed  1 integral passes. Memory used:   0.47 MW  CPU time:      0.02 sec

 CPHF start vector      0.2 not found

 Starting Coupled-perturbed Hartree-Fock, convergence threshold= 1.0D-06

 ITER   MIC  DIIS      VAR         VARC       CPU
   1     0     1    0.37D-01    0.17D-02     0.00
   2     4     2    0.39D-03    0.34D-03     0.01
   3     2     3    0.64D-04    0.51D-05     0.01
   4     4     4    0.19D-05    0.54D-06     0.01
   5     1     5    0.82D-07    0.14D-07     0.01

 CPHF convergence reached in  5 macroiterations and   11 microiterations.   Accuracy: 8.2020D-08

 CPHF solution written to record  4100.2

 Dipole moments (unrelaxed):            0.00000000     0.00000000     0.00000000
 Orbital relaxation contribution:      -0.00000000    -0.00000000    -0.00000000
 !MP2 STATE 1.1 Dipole moment           0.00000000     0.00000000     0.00000000
 Dipole moment /Debye                   0.00000000     0.00000000     0.00000000

 CPU-time for density and lagrangian:                  0.01 sec
 CPU-time for coupled-perturbed hartree-fock:          0.01 sec

 MP2 gradient info saved on record         5200.1


 **********************************************************************************************************************************
 DATASETS  * FILE   NREC   LENGTH (MB)   RECORD NAMES
              1      20       31.75       500      610      700      900      950      970     1000      129      960     1100   
                                          VAR    BASINP    GEOM    SYMINP    ZMAT    AOBASIS   BASIS     P2S    ABASIS      S 
                                         1400     1410     1200     1210     1080     1600     1650     1700     1380     5200   
                                           T        V       H0       H01     AOSYM     SMH    MOLCAS    OPER     JKOP      MP2  

              2       5        0.78       700     1000      520     2100     4100   
                                         GEOM     BASIS   MCVARS     RHF     CPHF   

 PROGRAMS   *        TOTAL       MP2    HF-SCF       INT
 CPU TIMES  *         0.93      0.10      0.04      0.66
 REAL TIME  *         1.38 SEC
 DISK USED  *        32.61 MB (local),      646.43 MB (total)
 SF USED    *         7.36 MB
 GA USED    *         0.00 MB       (max)       0.00 MB       (current)
 **********************************************************************************************************************************


 PROGRAM * OPT (Geometry optimization)     Authors: F. Eckert and H.-J. Werner


 BFGS update of hessian

 *** Long output written to logfile /media/storage_4_240T/ddi/Kemal/C2H6/c2h6.log ***


 Geometry optimization using default procedure for command MP2

 Geometry written to block  1 of record 700

 Making model hessian for Z-matrix coordinates

 Entering Rational Function Geometry Optimization

 ITER.   ENERGY(OLD)    ENERGY(NEW)      DE          GRADMAX     GRADNORM    GRADRMS     STEPMAX     STEPLEN     STEPRMS   CPU-time
   1   -79.20468351   -79.48653177    -0.28184826  1.36071392  1.41594600  0.81749680  0.29869265  0.30000000  0.10000000      1.24
   2   -79.48653177   -79.57578675    -0.08925497  0.57175826  0.60417931  0.34882309  0.20441156  0.20743727  0.06914576      2.47
   3   -79.57578675   -79.61460005    -0.03881330  0.28347311  0.28893204  0.16681499  0.19778123  0.19785135  0.06595045      3.71
   4   -79.61460005   -79.62686895    -0.01226890  0.12112688  0.12118030  0.06996348  0.15019918  0.15117262  0.05039087      5.00
   5   -79.62686895   -79.62961516    -0.00274621  0.04618356  0.04662184  0.02691713  0.09320044  0.09415486  0.03138495      6.18
   6   -79.62961516   -79.62989980    -0.00028463  0.01319569  0.01335216  0.00770887  0.03703203  0.03736776  0.01245592      7.44
   7   -79.62989980   -79.62990825    -0.00000845  0.00218934  0.00218958  0.00126415  0.00728527  0.00733877  0.00244626      8.64
   8   -79.62990825   -79.62990828    -0.00000004  0.00013787  0.00017870  0.00010317  0.00047157  0.00047453  0.00015818      9.82

 END OF GEOMETRY OPTIMIZATION.

 Optimized variables
 B1=                  1.08837115 ANG
 B2=                  1.52339538 ANG
 A1=                111.22773753 DEGREE

 **********************************************************************************************************************************

 Geometry written to block  1 of record 700

 Recomputing wavefunction for reoriented structure

 Current geometry (xyz format, in Angstrom)

    8
 MP2/VTZ  ENERGY=-79.62990828
 H          0.5072618376        0.8786032755       -1.1557706297
 C          0.0000000000        0.0000000000       -0.7616976906
 C          0.0000000000        0.0000000000        0.7616976906
 H         -0.5072618376       -0.8786032755        1.1557706297
 H         -0.5072618376        0.8786032755        1.1557706297
 H          1.0145236752        0.0000000000        1.1557706297
 H         -1.0145236752        0.0000000000       -1.1557706297
 H          0.5072618376       -0.8786032755       -1.1557706297

 **********************************************************************************************************************************


 **********************************************************************************************************************************
 DATASETS  * FILE   NREC   LENGTH (MB)   RECORD NAMES
              1      21       32.86       500      610      700      900      950      970     1000      129      960     1100   
                                          VAR    BASINP    GEOM    SYMINP    ZMAT    AOBASIS   BASIS     P2S    ABASIS      S 
                                         1400     1410     1200     1210     1080     1600     1650     1700     1380     5200   
                                           T        V       H0       H01     AOSYM     SMH    MOLCAS    OPER     JKOP      MP2  
                                         5201   
                                          MP2  

              2       6        0.92       700     1000      520     2100     4100     9001   
                                         GEOM     BASIS   MCVARS     RHF     CPHF    DEN_MP2    

 PROGRAMS   *        TOTAL      OPTG       MP2    HF-SCF       INT
 CPU TIMES  *        10.86      9.92      0.10      0.04      0.66
 REAL TIME  *        12.44 SEC
 DISK USED  *        33.85 MB (local),      661.28 MB (total)
 SF USED    *         7.46 MB
 GA USED    *         0.00 MB       (max)       0.00 MB       (current)
 **********************************************************************************************************************************


 PROGRAM * HESSIAN

 Computing numerical hessian using default procedure for command MP2

 Symmetry elements for unique displacements: Y  XZ 

 Using AUTO symmetry option

 Running default procedure: HF-SCF000  MP2


 Numerically approximating hessian using central gradient differences

 Task list generated. Total number of displacements:     16

 All  16 tasks completed.  CPU=     32.85 sec, Elapsed=     32.87 sec.

 MP2 hessian saved to record  5300.2

 PROGRAM * FREQUENCIES (Calculation of harmonic vibrational spectra for MP2)


 Permanent Dipole Moment [debye]
   1-  3    0.000000    0.000000    0.000000

 Dipole Moment Norm    0.0000000 [debye]

 Dipole Moment Derivatives [debye/ang]
              1             2             3             4             5             6             7             8
    1     0.0872124    -0.3730628     0.1255756     0.3842721     0.0000000    -0.0000001     0.3842721     0.0000000
    2    -0.3730314    -0.3435600     0.2175034     0.0000000     0.3842207     0.0000000     0.0000000     0.3842207
    3     0.2157840     0.3737815    -0.0850613    -0.0000283     0.0000000     0.2553353    -0.0000283     0.0000000
              9            10            11            12            13            14            15            16
    1    -0.0000001     0.0872124    -0.3730628     0.1255756     0.0872124     0.3730628     0.1255756    -0.5589632
    2     0.0000000    -0.3730314    -0.3435600     0.2175034     0.3730314    -0.3435600    -0.2175034     0.0000000
    3     0.2553353     0.2157840     0.3737815    -0.0850613     0.2157840    -0.3737815    -0.0850613    -0.4316215
             17            18            19            20            21            22            23            24
    1     0.0000000    -0.2511512    -0.5589632     0.0000000    -0.2511512     0.0872124     0.3730628     0.1255756
    2     0.3025520     0.0000000     0.0000000     0.3025520     0.0000000     0.3730314    -0.3435600    -0.2175034
    3     0.0000000    -0.0850613    -0.4316215     0.0000000    -0.0850613     0.2157840    -0.3737815    -0.0850613

 Projecting out rotations and translations

 Force Constants (Second Derivatives of the Energy) in [a.u.]
                             H1X1        H1Y1        H1Z1        C1X2        C1Y2    
           H1X1          0.1135458
           H1Y1          0.1144866   0.2457492
           H1Z1         -0.0490220  -0.0849143   0.0896688
           C1X2         -0.1089834  -0.1045678   0.0443363   0.5852107
           C1Y2         -0.1045677  -0.2297360   0.0768004  -0.0000000   0.5852100
           C1Z2          0.0449098   0.0777920  -0.0791941   0.0000129   0.0000000
           C2X3          0.0002521   0.0014463   0.0167309  -0.0803801   0.0000000
           C2Y3          0.0014458   0.0019239   0.0289772   0.0000000  -0.0803803
           C2Z3         -0.0009420  -0.0016315  -0.0127060  -0.0000022   0.0000000
           H2X4          0.0011223   0.0003638  -0.0003614   0.0002521   0.0014458
           H2Y4          0.0003638   0.0015431  -0.0006271   0.0014463   0.0019239
           H2Z4         -0.0003614  -0.0006271  -0.0073281   0.0167309   0.0289772
           H3X5         -0.0003154   0.0001356   0.0003134   0.0002521  -0.0014458
           H3Y5         -0.0001356   0.0005793  -0.0003270  -0.0014463   0.0019239
           H3Z5          0.0003134   0.0003270   0.0016236   0.0167309  -0.0289772
           H4X6          0.0003549   0.0002520  -0.0004399   0.0027601  -0.0000000
           H4Y6          0.0005241  -0.0000938   0.0001093   0.0000000  -0.0005831
           H4Z6          0.0001259   0.0004354   0.0016232  -0.0334593  -0.0000000
           H5X7         -0.0134807   0.0017631  -0.0049763  -0.2901281  -0.0000000
           H5Y7         -0.0259965   0.0005108  -0.0104729  -0.0000000  -0.0486223
           H5Z7          0.0115574  -0.0009269   0.0031564  -0.0886860   0.0000000
           H6X8          0.0075044  -0.0138794  -0.0065810  -0.1089834   0.1045677
           H6Y8          0.0138794  -0.0204765  -0.0095455   0.1045678  -0.2297360
           H6Z8         -0.0065810   0.0095455   0.0031563   0.0443363  -0.0768004
                             C1Z2        C2X3        C2Y3        C2Z3        H2X4    
           C1Z2          0.4900753
           C2X3         -0.0000022   0.5852107
           C2Y3         -0.0000000   0.0000000   0.5852100
           C2Z3         -0.2143749   0.0000129  -0.0000000   0.4900753
           H2X4         -0.0009420  -0.1089834  -0.1045677   0.0449098   0.1135458
           H2Y4         -0.0016315  -0.1045678  -0.2297360   0.0777920   0.1144866
           H2Z4         -0.0127060   0.0443363   0.0768004  -0.0791941  -0.0490220
           H3X5         -0.0009420  -0.1089834   0.1045677   0.0449098   0.0075044
           H3Y5          0.0016315   0.1045678  -0.2297360  -0.0777920   0.0138794
           H3Z5         -0.0127060   0.0443363  -0.0768004  -0.0791941  -0.0065810
           H4X6          0.0018838  -0.2901281  -0.0000000  -0.0898301  -0.0134807
           H4Y6          0.0000000   0.0000000  -0.0486223  -0.0000000  -0.0259965
           H4Z6         -0.0127058  -0.0886860   0.0000000  -0.0791943   0.0115574
           H5X7         -0.0898301   0.0027601  -0.0000000   0.0018838   0.0003549
           H5Y7         -0.0000000  -0.0000000  -0.0005831  -0.0000000   0.0005241
           H5Z7         -0.0791943  -0.0334593  -0.0000000  -0.0127058   0.0001259
           H6X8          0.0449098   0.0002521  -0.0014458  -0.0009420  -0.0003154
           H6Y8         -0.0777920  -0.0014463   0.0019239   0.0016315  -0.0001356
           H6Z8         -0.0791941   0.0167309  -0.0289772  -0.0127060   0.0003134
                             H2Y4        H2Z4        H3X5        H3Y5        H3Z5    
           H2Y4          0.2457492
           H2Z4         -0.0849143   0.0896688
           H3X5         -0.0138794  -0.0065810   0.1135458
           H3Y5         -0.0204765  -0.0095455  -0.1144866   0.2457492
           H3Z5          0.0095455   0.0031563  -0.0490220   0.0849143   0.0896688
           H4X6          0.0017631  -0.0049763  -0.0134807  -0.0017631  -0.0049763
           H4Y6          0.0005108  -0.0104729   0.0259965   0.0005108   0.0104729
           H4Z6         -0.0009269   0.0031564   0.0115574   0.0009269   0.0031564
           H5X7          0.0002520  -0.0004399   0.0003549  -0.0002520  -0.0004399
           H5Y7         -0.0000938   0.0001093  -0.0005241  -0.0000938  -0.0001093
           H5Z7          0.0004354   0.0016232   0.0001259  -0.0004354   0.0016232
           H6X8          0.0001356   0.0003134   0.0011223  -0.0003638  -0.0003614
           H6Y8          0.0005793  -0.0003270  -0.0003638   0.0015431   0.0006271
           H6Z8          0.0003270   0.0016236  -0.0003614   0.0006271  -0.0073281
                             H4X6        H4Y6        H4Z6        H5X7        H5Y7    
           H4X6          0.3118668
           H4Y6         -0.0000000   0.0474555
           H4Z6          0.0980549   0.0000000   0.0896692
           H5X7          0.0017527  -0.0000000   0.0007238   0.3118668
           H5Y7         -0.0000000   0.0009160   0.0000000  -0.0000000   0.0474555
           H5Z7          0.0007238  -0.0000000  -0.0073282   0.0980549  -0.0000000
           H6X8          0.0003549  -0.0005241   0.0001259  -0.0134807   0.0259965
           H6Y8         -0.0002520  -0.0000938  -0.0004354  -0.0017631   0.0005108
           H6Z8         -0.0004399  -0.0001093   0.0016232  -0.0049763   0.0104729
                             H5Z7        H6X8        H6Y8        H6Z8    
           H5Z7          0.0896692
           H6X8          0.0115574   0.1135458
           H6Y8          0.0009269  -0.1144866   0.2457492
           H6Z8          0.0031564  -0.0490220   0.0849143   0.0896688


 Atomic Masses
   1-  8    1.007825   12.000000   12.000000    1.007825    1.007825    1.007825    1.007825    1.007825

 Mass weighted Second Derivative Matrix
                             H1X1        H1Y1        H1Z1        C1X2        C1Y2    
           H1X1          0.1126642
           H1Y1          0.1135977   0.2438411
           H1Z1         -0.0486414  -0.0842550   0.0889726
           C1X2         -0.0313384  -0.0300687   0.0127490   0.0487676
           C1Y2         -0.0300687  -0.0660611   0.0220841  -0.0000000   0.0487675
           C1Z2          0.0129139   0.0223693  -0.0227724   0.0000011   0.0000000
           C2X3          0.0000725   0.0004159   0.0048110  -0.0066983   0.0000000
           C2Y3          0.0004157   0.0005532   0.0083325   0.0000000  -0.0066984
           C2Z3         -0.0002709  -0.0004691  -0.0036537  -0.0000002   0.0000000
           H2X4          0.0011136   0.0003610  -0.0003586   0.0000725   0.0004157
           H2Y4          0.0003610   0.0015311  -0.0006223   0.0004159   0.0005532
           H2Z4         -0.0003586  -0.0006223  -0.0072712   0.0048110   0.0083325
           H3X5         -0.0003130   0.0001345   0.0003109   0.0000725  -0.0004157
           H3Y5         -0.0001345   0.0005748  -0.0003245  -0.0004159   0.0005532
           H3Z5          0.0003109   0.0003245   0.0016110   0.0048110  -0.0083325
           H4X6          0.0003522   0.0002500  -0.0004365   0.0007937  -0.0000000
           H4Y6          0.0005200  -0.0000931   0.0001085   0.0000000  -0.0001677
           H4Z6          0.0001249   0.0004320   0.0016106  -0.0096213  -0.0000000
           H5X7         -0.0133760   0.0017494  -0.0049377  -0.0834270  -0.0000000
           H5Y7         -0.0257946   0.0005068  -0.0103916  -0.0000000  -0.0139814
           H5Z7          0.0114676  -0.0009197   0.0031319  -0.0255018   0.0000000
           H6X8          0.0074461  -0.0137717  -0.0065299  -0.0313384   0.0300687
           H6Y8          0.0137717  -0.0203175  -0.0094714   0.0300687  -0.0660611
           H6Z8         -0.0065299   0.0094714   0.0031318   0.0127490  -0.0220841
                             C1Z2        C2X3        C2Y3        C2Z3        H2X4    
           C1Z2          0.0408396
           C2X3         -0.0000002   0.0487676
           C2Y3         -0.0000000   0.0000000   0.0487675
           C2Z3         -0.0178646   0.0000011  -0.0000000   0.0408396
           H2X4         -0.0002709  -0.0313384  -0.0300687   0.0129139   0.1126642
           H2Y4         -0.0004691  -0.0300687  -0.0660611   0.0223693   0.1135977
           H2Z4         -0.0036537   0.0127490   0.0220841  -0.0227724  -0.0486414
           H3X5         -0.0002709  -0.0313384   0.0300687   0.0129139   0.0074461
           H3Y5          0.0004691   0.0300687  -0.0660611  -0.0223693   0.0137717
           H3Z5         -0.0036537   0.0127490  -0.0220841  -0.0227724  -0.0065299
           H4X6          0.0005417  -0.0834270  -0.0000000  -0.0258308  -0.0133760
           H4Y6          0.0000000   0.0000000  -0.0139814  -0.0000000  -0.0257946
           H4Z6         -0.0036536  -0.0255018   0.0000000  -0.0227725   0.0114676
           H5X7         -0.0258308   0.0007937  -0.0000000   0.0005417   0.0003522
           H5Y7         -0.0000000  -0.0000000  -0.0001677  -0.0000000   0.0005200
           H5Z7         -0.0227725  -0.0096213  -0.0000000  -0.0036536   0.0001249
           H6X8          0.0129139   0.0000725  -0.0004157  -0.0002709  -0.0003130
           H6Y8         -0.0223693  -0.0004159   0.0005532   0.0004691  -0.0001345
           H6Z8         -0.0227724   0.0048110  -0.0083325  -0.0036537   0.0003109
                             H2Y4        H2Z4        H3X5        H3Y5        H3Z5    
           H2Y4          0.2438411
           H2Z4         -0.0842550   0.0889726
           H3X5         -0.0137717  -0.0065299   0.1126642
           H3Y5         -0.0203175  -0.0094714  -0.1135977   0.2438411
           H3Z5          0.0094714   0.0031318  -0.0486414   0.0842550   0.0889726
           H4X6          0.0017494  -0.0049377  -0.0133760  -0.0017494  -0.0049377
           H4Y6          0.0005068  -0.0103916   0.0257946   0.0005068   0.0103916
           H4Z6         -0.0009197   0.0031319   0.0114676   0.0009197   0.0031319
           H5X7          0.0002500  -0.0004365   0.0003522  -0.0002500  -0.0004365
           H5Y7         -0.0000931   0.0001085  -0.0005200  -0.0000931  -0.0001085
           H5Z7          0.0004320   0.0016106   0.0001249  -0.0004320   0.0016106
           H6X8          0.0001345   0.0003109   0.0011136  -0.0003610  -0.0003586
           H6Y8          0.0005748  -0.0003245  -0.0003610   0.0015311   0.0006223
           H6Z8          0.0003245   0.0016110  -0.0003586   0.0006223  -0.0072712
                             H4X6        H4Y6        H4Z6        H5X7        H5Y7    
           H4X6          0.3094454
           H4Y6         -0.0000000   0.0470870
           H4Z6          0.0972936   0.0000000   0.0889730
           H5X7          0.0017391  -0.0000000   0.0007182   0.3094454
           H5Y7         -0.0000000   0.0009088   0.0000000  -0.0000000   0.0470870
           H5Z7          0.0007182  -0.0000000  -0.0072713   0.0972936  -0.0000000
           H6X8          0.0003522  -0.0005200   0.0001249  -0.0133760   0.0257946
           H6Y8         -0.0002500  -0.0000931  -0.0004320  -0.0017494   0.0005068
           H6Z8         -0.0004365  -0.0001085   0.0016106  -0.0049377   0.0103916
                             H5Z7        H6X8        H6Y8        H6Z8    
           H5Z7          0.0889730
           H6X8          0.0114676   0.1126642
           H6Y8          0.0009197  -0.1135977   0.2438411
           H6Z8          0.0031319  -0.0486414   0.0842550   0.0889726


 Mass Weighted 2nd Derivative Matrix Eigenvalues
   1- 10    0.000000    0.000000    0.000000    0.000000    0.000000    0.000000    0.003798    0.025896    0.025896    0.040102
  11- 20    0.057223    0.057224    0.075318    0.077487    0.087758    0.087766    0.087785    0.087793    0.359226    0.359575
  21- 24    0.376559    0.376575    0.381838    0.381853

 Mass Weighted 2nd Derivative Matrix Eigenvectors
              1             2             3             4             5             6             7             8
    1     0.4595120    -0.0179819     0.0120166    -0.0004945     0.0083382     0.0214251     0.3535737    -0.0298310
    2    -0.1726050    -0.0280480    -0.0017791    -0.1257377     0.1017996     0.2684381    -0.2041558     0.1685593
    3     0.0396925    -0.1786008     0.0283441    -0.1766903     0.0864512     0.0433082    -0.0000768     0.4281809
    4     0.4838220    -0.0603247     0.5055772     0.1571208     0.2916674     0.2711313     0.0000000     0.0000000
    5    -0.0225909     0.0541827    -0.3271377    -0.3665824     0.2473272     0.6087541     0.0000377    -0.1615902
    6    -0.0037419    -0.2774802    -0.0204578    -0.2552162     0.4049664    -0.3046541     0.0000000     0.0000000
    7     0.0056295     0.6689590     0.3218951    -0.2370616     0.2323635    -0.1235100     0.0000000     0.0000000
    8     0.0095262     0.2205779    -0.4261425     0.4756196     0.4664949     0.0492533     0.0000377    -0.1615902
    9    -0.0037419    -0.2774802    -0.0204578    -0.2552162     0.4049664    -0.3046541     0.0000000     0.0000000
   10    -0.3176678     0.1943656     0.2277868    -0.0226725     0.1435272     0.0213559     0.3535737    -0.0298310
   11     0.1688189     0.1076743    -0.2165233     0.1573369     0.1050677    -0.0777460    -0.2041558     0.1685593
   12    -0.0418613     0.0177719    -0.0402015     0.0287658     0.1482693    -0.2198872    -0.0000768     0.4281809
   13     0.2492340     0.3027096    -0.0687548    -0.1738303    -0.0177398    -0.1521125    -0.3535737     0.0298310
   14     0.1688189     0.1076743    -0.2165233     0.1573369     0.1050677    -0.0777460    -0.2041558     0.1685593
   15    -0.0525975    -0.0378509    -0.0071061    -0.2527665     0.0750057    -0.0328565     0.0000768    -0.4281809
   16    -0.0342169     0.2485376     0.0795160    -0.0982514     0.0628937    -0.0653783     0.0000000     0.0000000
   17    -0.3221325     0.0138456     0.0402893     0.2882434     0.2447290     0.0724821     0.4081815     0.2204692
   18     0.0912055    -0.2211643     0.0295214     0.0021139     0.1288057    -0.0121247     0.0000000     0.0000000
   19     0.1760611    -0.0721539     0.1602874     0.0750844     0.0889717     0.1081593     0.0000000     0.0000000
   20     0.3183463     0.0657807    -0.2585917    -0.2566442    -0.0378617     0.1182100     0.4081815     0.2204692
   21    -0.0933744     0.0603355    -0.0413789    -0.1500384     0.1059147    -0.1644542     0.0000000     0.0000000
   22    -0.1073898    -0.1263260     0.3085582     0.1506633     0.1696052     0.1948935    -0.3535737     0.0298310
   23    -0.1726050    -0.0280480    -0.0017791    -0.1257377     0.1017996     0.2684381    -0.2041558     0.1685593
   24     0.0504286    -0.1229779    -0.0047514     0.1048420     0.1597148    -0.1437224     0.0000768    -0.4281809
              9            10            11            12            13            14            15            16
    1    -0.2031310     0.0039044    -0.1796756     0.0772123     0.0754257    -0.0771589     0.3459329    -0.2686319
    2     0.0299063     0.0067719     0.0772396    -0.0904940     0.1307238    -0.1337180    -0.2686267     0.0357066
    3    -0.2471973     0.2080512    -0.2039574    -0.3533290     0.3390375    -0.3236720    -0.1114397    -0.1930702
    4     0.1615935     0.0000042     0.4144174     0.0000000     0.0000125     0.0000238    -0.1659011     0.0000000
    5     0.0000000     0.0000000     0.0000000     0.4144110     0.0000000     0.0000000     0.0000000    -0.1659005
    6    -0.0000095     0.6082433    -0.0000325     0.0000000    -0.2947451     0.3380566    -0.0000307     0.0000000
    7     0.1615935    -0.0000042    -0.4144174     0.0000000     0.0000125    -0.0000238    -0.1659011     0.0000000
    8     0.0000000     0.0000000     0.0000000    -0.4144110     0.0000000     0.0000000     0.0000000    -0.1659005
    9    -0.0000095    -0.6082433     0.0000325     0.0000000    -0.2947451    -0.3380566    -0.0000307     0.0000000
   10    -0.2031310    -0.0039044     0.1796756    -0.0772123     0.0754257     0.0771589     0.3459329    -0.2686319
   11     0.0299063    -0.0067719    -0.0772396     0.0904940     0.1307238     0.1337180    -0.2686267     0.0357066
   12    -0.2471973    -0.2080512     0.2039574     0.3533290     0.3390375     0.3236720    -0.1114397    -0.1930702
   13    -0.2031310    -0.0039044     0.1796756     0.0772123     0.0754257     0.0771589     0.3459329     0.2686319
   14    -0.0299063     0.0067719     0.0772396     0.0904940    -0.1307238    -0.1337180     0.2686267     0.0357066
   15    -0.2471973    -0.2080512     0.2039574    -0.3533290     0.3390375     0.3236720    -0.1114397     0.1930702
   16    -0.1513368     0.0078165     0.0459149     0.0000000    -0.1508943    -0.1543529    -0.1194029     0.0000000
   17     0.0000000     0.0000000     0.0000000     0.2242297     0.0000000     0.0000000     0.0000000     0.5010476
   18     0.4944274    -0.2080533    -0.4079880     0.0000000     0.3389806     0.3235704     0.2229852     0.0000000
   19    -0.1513368    -0.0078165    -0.0459149     0.0000000    -0.1508943     0.1543529    -0.1194029     0.0000000
   20     0.0000000     0.0000000     0.0000000    -0.2242297     0.0000000     0.0000000     0.0000000     0.5010476
   21     0.4944274     0.2080533     0.4079880     0.0000000     0.3389806    -0.3235704     0.2229852     0.0000000
   22    -0.2031310     0.0039044    -0.1796756    -0.0772123     0.0754257    -0.0771589     0.3459329     0.2686319
   23    -0.0299063    -0.0067719    -0.0772396    -0.0904940    -0.1307238     0.1337180     0.2686267     0.0357066
   24    -0.2471973     0.2080512    -0.2039574     0.3533290     0.3390375    -0.3236720    -0.1114397     0.1930702
             17            18            19            20            21            22            23            24
    1     0.3298171     0.2579785     0.1889989    -0.1897185     0.2290968    -0.1167984     0.2278874     0.1176622
    2    -0.2579468    -0.0319300     0.3273879    -0.3286256     0.3814689    -0.2288850     0.3809089     0.2277319
    3    -0.1477923     0.2560210    -0.1365915     0.1349251    -0.1692147     0.0976047    -0.1714206    -0.0989029
    4    -0.0674131     0.0000000    -0.0001371     0.0001042     0.0000000     0.2156120     0.0000000    -0.2167703
    5     0.0000000     0.0674437     0.0000000     0.0000000    -0.2156149     0.0000000    -0.2167732     0.0000000
    6    -0.0000367     0.0000000     0.1255302    -0.1172618     0.0000000     0.0000818     0.0000000    -0.0000569
    7     0.0674131     0.0000000     0.0001371     0.0001042     0.0000000    -0.2156120     0.0000000    -0.2167703
    8     0.0000000    -0.0674437     0.0000000     0.0000000     0.2156149     0.0000000    -0.2167732     0.0000000
    9     0.0000367     0.0000000    -0.1255302    -0.1172618     0.0000000    -0.0000818     0.0000000    -0.0000569
   10    -0.3298171    -0.2579785    -0.1889989    -0.1897185    -0.2290968     0.1167984     0.2278874     0.1176622
   11     0.2579468     0.0319300    -0.3273879    -0.3286256    -0.3814689     0.2288850     0.3809089     0.2277319
   12     0.1477923    -0.2560210     0.1365915     0.1349251     0.1692147    -0.0976047    -0.1714206    -0.0989029
   13    -0.3298171     0.2579785    -0.1889989    -0.1897185     0.2290968     0.1167984    -0.2278874     0.1176622
   14    -0.2579468     0.0319300     0.3273879     0.3286256    -0.3814689    -0.2288850     0.3809089    -0.2277319
   15     0.1477923     0.2560210     0.1365915     0.1349251    -0.1692147    -0.0976047     0.1714206    -0.0989029
   16     0.1170321     0.0000000     0.3775143     0.3790773     0.0000000     0.5139905     0.0000000     0.5126692
   17     0.0000000     0.4787619     0.0000000     0.0000000     0.0153384     0.0000000    -0.0138140     0.0000000
   18    -0.2957061     0.0000000     0.1363959     0.1347765     0.0000000     0.1954776     0.0000000     0.1980023
   19    -0.1170321     0.0000000    -0.3775143     0.3790773     0.0000000    -0.5139905     0.0000000     0.5126692
   20     0.0000000    -0.4787619     0.0000000     0.0000000    -0.0153384     0.0000000    -0.0138140     0.0000000
   21     0.2957061     0.0000000    -0.1363959     0.1347765     0.0000000    -0.1954776     0.0000000     0.1980023
   22     0.3298171    -0.2579785     0.1889989    -0.1897185    -0.2290968    -0.1167984    -0.2278874     0.1176622
   23     0.2579468    -0.0319300    -0.3273879     0.3286256     0.3814689     0.2288850     0.3809089    -0.2277319
   24    -0.1477923    -0.2560210    -0.1365915     0.1349251     0.1692147     0.0976047     0.1714206    -0.0989029

   Low Vibration      Wavenumber
        Nr             [1/cm] 
        1                0.00
        2                0.00
        3                0.00
        4                0.00
        5                0.00
        6                0.00

     Vibration        Wavenumber
        Nr             [1/cm] 
        1              316.79
        2              827.22
        3              827.23
        4             1029.41
        5             1229.67
        6             1229.68
        7             1410.76
        8             1430.93
        9             1522.82
       10             1522.89
       11             1523.05
       12             1523.12
       13             3080.97
       14             3082.47
       15             3154.43
       16             3154.49
       17             3176.46
       18             3176.52

 FREQUENCIES * CALCULATION OF NORMAL MODES FOR MP2


 Atomic Coordinates

  Nr  Atom  Charge       X              Y              Z

   1   H1    1.00    0.958585947    1.660319563   -2.184089953
   2   C1    6.00    0.000000000    0.000000000   -1.439400025
   3   C2    6.00    0.000000000    0.000000000    1.439400025
   4   H2    1.00   -0.958585947   -1.660319563    2.184089953
   5   H3    1.00   -0.958585947    1.660319563    2.184089953
   6   H4    1.00    1.917171893    0.000000000    2.184089953
   7   H5    1.00   -1.917171893    0.000000000   -2.184089953
   8   H6    1.00    0.958585947   -1.660319563   -2.184089953

 Gradient norm at reference geometry: 0.33578D-03

 Normal Modes

                              1 Au        2 Au        3 Bu        4 Ag        5 Ag 
 Wavenumbers [cm-1]          316.79      827.22      827.23     1029.41     1229.67
 Intensities [km/mol]          0.00        3.35        3.35        0.00        0.00
 Intensities [relative]        0.00        6.99        7.00        0.00        0.00
           H1X1             0.35220    -0.02971    -0.20234     0.00389    -0.17898
           H1Y1            -0.20336     0.16790     0.02979     0.00675     0.07694
           H1Z1            -0.00008     0.42652    -0.24624     0.20724    -0.20316
           C1X2            -0.00000    -0.00000     0.04665     0.00000     0.11963
           C1Y2             0.00001    -0.04665    -0.00000     0.00000     0.00000
           C1Z2             0.00000     0.00000    -0.00000     0.17558    -0.00001
           C2X3             0.00000    -0.00000     0.04665    -0.00000    -0.11963
           C2Y3             0.00001    -0.04665    -0.00000     0.00000    -0.00000
           C2Z3             0.00000     0.00000    -0.00000    -0.17558     0.00001
           H2X4             0.35220    -0.02971    -0.20234    -0.00389     0.17898
           H2Y4            -0.20336     0.16790     0.02979    -0.00675    -0.07694
           H2Z4            -0.00008     0.42652    -0.24624    -0.20724     0.20316
           H3X5            -0.35220     0.02971    -0.20234    -0.00389     0.17898
           H3Y5            -0.20336     0.16790    -0.02979     0.00675     0.07694
           H3Z5             0.00008    -0.42652    -0.24624    -0.20724     0.20316
           H4X6             0.00000     0.00000    -0.15075     0.00779     0.04574
           H4Y6             0.40659     0.21961     0.00000     0.00000     0.00000
           H4Z6            -0.00000    -0.00000     0.49250    -0.20724    -0.40640
           H5X7            -0.00000     0.00000    -0.15075    -0.00779    -0.04574
           H5Y7             0.40659     0.21961     0.00000     0.00000    -0.00000
           H5Z7             0.00000    -0.00000     0.49250     0.20724     0.40640
           H6X8            -0.35220     0.02971    -0.20234     0.00389    -0.17898
           H6Y8            -0.20336     0.16790    -0.02979    -0.00675    -0.07694
           H6Z8             0.00008    -0.42652    -0.24624     0.20724    -0.20316

                              6 Bg        7 Bu        8 Ag        9 Bu       10 Au 
 Wavenumbers [cm-1]         1229.68     1410.76     1430.93     1522.82     1522.89
 Intensities [km/mol]          0.00        1.27        0.00        8.49        8.49
 Intensities [relative]        0.00        2.65        0.00       17.72       17.71
           H1X1             0.07691     0.07513    -0.07686     0.34459    -0.26759
           H1Y1            -0.09014     0.13022    -0.13320    -0.26758     0.03557
           H1Z1            -0.35195     0.33772    -0.32241    -0.11101    -0.19232
           C1X2            -0.00000     0.00000     0.00001    -0.04789     0.00000
           C1Y2             0.11963     0.00000     0.00000    -0.00000    -0.04789
           C1Z2             0.00000    -0.08509     0.09759    -0.00001     0.00000
           C2X3             0.00000     0.00000    -0.00001    -0.04789     0.00000
           C2Y3            -0.11963    -0.00000    -0.00000    -0.00000    -0.04789
           C2Z3            -0.00000    -0.08509    -0.09759    -0.00001     0.00000
           H2X4            -0.07691     0.07513     0.07686     0.34459    -0.26759
           H2Y4             0.09014     0.13022     0.13320    -0.26758     0.03557
           H2Z4             0.35195     0.33772     0.32241    -0.11101    -0.19232
           H3X5             0.07691     0.07513     0.07686     0.34459     0.26759
           H3Y5             0.09014    -0.13022    -0.13320     0.26758     0.03557
           H3Z5            -0.35195     0.33772     0.32241    -0.11101     0.19232
           H4X6            -0.00000    -0.15031    -0.15375    -0.11894     0.00000
           H4Y6             0.22336     0.00000    -0.00000     0.00000     0.49910
           H4Z6             0.00000     0.33766     0.32231     0.22212    -0.00000
           H5X7             0.00000    -0.15031     0.15375    -0.11894     0.00000
           H5Y7            -0.22336    -0.00000    -0.00000     0.00000     0.49910
           H5Z7            -0.00000     0.33766    -0.32231     0.22212    -0.00000
           H6X8            -0.07691     0.07513    -0.07686     0.34459     0.26759
           H6Y8            -0.09014    -0.13022     0.13320     0.26758     0.03557
           H6Z8             0.35195     0.33772    -0.32241    -0.11101     0.19232

                             11 Ag       12 Bg       13 Ag       14 Bu       15 Bg 
 Wavenumbers [cm-1]         1523.05     1523.12     3080.97     3082.47     3154.43
 Intensities [km/mol]          0.00        0.00        0.00       47.87        0.00
 Intensities [relative]        0.00        0.00        0.00       99.85        0.00
           H1X1             0.32853     0.25698     0.18826    -0.18898     0.22821
           H1Y1            -0.25694    -0.03181     0.32611    -0.32735     0.37999
           H1Z1            -0.14722     0.25503    -0.13606     0.13440    -0.16856
           C1X2            -0.01946    -0.00000    -0.00004     0.00003     0.00000
           C1Y2            -0.00000     0.01947     0.00000    -0.00000    -0.06224
           C1Z2            -0.00001     0.00000     0.03624    -0.03385     0.00000
           C2X3             0.01946     0.00000     0.00004     0.00003    -0.00000
           C2Y3             0.00000    -0.01947     0.00000     0.00000     0.06224
           C2Z3             0.00001     0.00000    -0.03624    -0.03385     0.00000
           H2X4            -0.32853    -0.25698    -0.18826    -0.18898    -0.22821
           H2Y4             0.25694     0.03181    -0.32611    -0.32735    -0.37999
           H2Z4             0.14722    -0.25503     0.13606     0.13440     0.16856
           H3X5            -0.32853     0.25698    -0.18826    -0.18898     0.22821
           H3Y5            -0.25694     0.03181     0.32611     0.32735    -0.37999
           H3Z5             0.14722     0.25503     0.13606     0.13440    -0.16856
           H4X6             0.11658     0.00000     0.37605     0.37760     0.00000
           H4Y6            -0.00000     0.47690    -0.00000    -0.00000     0.01528
           H4Z6            -0.29456    -0.00000     0.13587     0.13425     0.00000
           H5X7            -0.11658    -0.00000    -0.37605     0.37760    -0.00000
           H5Y7             0.00000    -0.47690     0.00000    -0.00000    -0.01528
           H5Z7             0.29456     0.00000    -0.13587     0.13425    -0.00000
           H6X8             0.32853    -0.25698     0.18826    -0.18898    -0.22821
           H6Y8             0.25694    -0.03181    -0.32611     0.32735     0.37999
           H6Z8            -0.14722    -0.25503    -0.13606     0.13440     0.16856

                             16 Ag       17 Au       18 Bu 
 Wavenumbers [cm-1]         3154.49     3176.46     3176.52
 Intensities [km/mol]          0.00       47.94       47.94
 Intensities [relative]        0.00       99.99      100.00
           H1X1            -0.11634     0.22700     0.11720
           H1Y1            -0.22799     0.37943     0.22685
           H1Z1             0.09722    -0.17075    -0.09852
           C1X2             0.06224     0.00000    -0.06258
           C1Y2             0.00000    -0.06258    -0.00000
           C1Z2             0.00002     0.00000    -0.00002
           C2X3            -0.06224     0.00000    -0.06258
           C2Y3            -0.00000    -0.06258    -0.00000
           C2Z3            -0.00002     0.00000    -0.00002
           H2X4             0.11634     0.22700     0.11720
           H2Y4             0.22799     0.37943     0.22685
           H2Z4            -0.09722    -0.17075    -0.09852
           H3X5             0.11634    -0.22700     0.11720
           H3Y5            -0.22799     0.37943    -0.22685
           H3Z5            -0.09722     0.17075    -0.09852
           H4X6             0.51199    -0.00000     0.51068
           H4Y6            -0.00000    -0.01376    -0.00000
           H4Z6             0.19472    -0.00000     0.19723
           H5X7            -0.51199    -0.00000     0.51068
           H5Y7             0.00000    -0.01376    -0.00000
           H5Z7            -0.19472    -0.00000     0.19723
           H6X8            -0.11634    -0.22700     0.11720
           H6Y8             0.22799     0.37943    -0.22685
           H6Z8             0.09722     0.17075    -0.09852


 Normal Modes of low/zero frequencies

                                  1           2           3           4           5
 Wavenumbers [cm-1]            0.00        0.00        0.00        0.00        0.00
 Intensities [km/mol]          0.00        0.00        0.00        0.00        0.00
 Intensities [relative]        0.00        0.00        0.00        0.00        0.00
           H1X1             0.45772    -0.01791     0.01197    -0.00049     0.00831
           H1Y1            -0.17193    -0.02794    -0.00177    -0.12525     0.10140
           H1Z1             0.03954    -0.17791     0.02823    -0.17600     0.08611
           C1X2             0.13967    -0.01741     0.14595     0.04536     0.08420
           C1Y2            -0.00652     0.01564    -0.09444    -0.10582     0.07140
           C1Z2            -0.00108    -0.08010    -0.00591    -0.07367     0.11690
           C2X3             0.00163     0.19311     0.09292    -0.06843     0.06708
           C2Y3             0.00275     0.06368    -0.12302     0.13730     0.13467
           C2Z3            -0.00108    -0.08010    -0.00591    -0.07367     0.11690
           H2X4            -0.31643     0.19361     0.22690    -0.02258     0.14297
           H2Y4             0.16816     0.10726    -0.21568     0.15672     0.10466
           H2Z4            -0.04170     0.01770    -0.04005     0.02865     0.14769
           H3X5             0.24826     0.30153    -0.06849    -0.17315    -0.01767
           H3Y5             0.16816     0.10726    -0.21568     0.15672     0.10466
           H3Z5            -0.05239    -0.03770    -0.00708    -0.25178     0.07471
           H4X6            -0.03408     0.24757     0.07921    -0.09787     0.06265
           H4Y6            -0.32088     0.01379     0.04013     0.28712     0.24378
           H4Z6             0.09085    -0.22030     0.02941     0.00211     0.12830
           H5X7             0.17538    -0.07187     0.15966     0.07479     0.08863
           H5Y7             0.31711     0.06552    -0.25759    -0.25565    -0.03771
           H5Z7            -0.09301     0.06010    -0.04122    -0.14945     0.10550
           H6X8            -0.10697    -0.12583     0.30736     0.15008     0.16895
           H6Y8            -0.17193    -0.02794    -0.00177    -0.12525     0.10140
           H6Z8             0.05023    -0.12250    -0.00473     0.10443     0.15909

                                  6
 Wavenumbers [cm-1]            0.00
 Intensities [km/mol]          0.00
 Intensities [relative]        0.00
           H1X1             0.02134
           H1Y1             0.26739
           H1Z1             0.04314
           C1X2             0.07827
           C1Y2             0.17573
           C1Z2            -0.08795
           C2X3            -0.03565
           C2Y3             0.01422
           C2Z3            -0.08795
           H2X4             0.02127
           H2Y4            -0.07744
           H2Z4            -0.21903
           H3X5            -0.15152
           H3Y5            -0.07744
           H3Z5            -0.03273
           H4X6            -0.06512
           H4Y6             0.07220
           H4Z6            -0.01208
           H5X7             0.10774
           H5Y7             0.11775
           H5Z7            -0.16381
           H6X8             0.19414
           H6Y8             0.26739
           H6Z8            -0.14316


 Frequencies dumped to record   5400.2

 Zero point energy:  0.07567829 [H]    16609.46 [1/CM]      198.69 [KJ/MOL]
 Frequency information read from record  5400.2

 Recomputing wavefunction at initial geometry


 **********************************************************************************************************************************
 DATASETS  * FILE   NREC   LENGTH (MB)   RECORD NAMES
              1      20       31.75       500      610      700      900      950      970     1000      129      960     1100   
                                          VAR    BASINP    GEOM    SYMINP    ZMAT    AOBASIS   BASIS     P2S    ABASIS      S 
                                         1400     1410     1200     1210     1080     1600     1650     1700     1380     5200   
                                           T        V       H0       H01     AOSYM     SMH    MOLCAS    OPER     JKOP      MP2  

              2       9        1.00       700     1000      520     2100     4100     9001     5300     5450     5400   
                                         GEOM     BASIS   MCVARS     RHF     CPHF    DEN_MP2   HESS     NMOD     FREQ   

 PROGRAMS   *        TOTAL      FREQ      OPTG       MP2    HF-SCF       INT
 CPU TIMES  *        41.93     31.07      9.92      0.10      0.04      0.66
 REAL TIME  *        46.36 SEC
 DISK USED  *       819.54 MB (local),        8.18 GB (total)
 SF USED    *         7.49 MB
 GA USED    *         0.00 MB       (max)       0.00 MB       (current)
 **********************************************************************************************************************************

 Dump information in style MOLDEN to c2h6_molden.dat                                                                 

 Molecular orbitals read from record     2100.2  Type=RHF/CANONICAL (state 1.1)
 Occupation numbers read from record     2100.2  Type=RHF/RHF (state 1.1)
 Orbital energies read from record       2100.2  Type=RHF/CANONICAL (state 1.1)
 Redundancy group numbers read from rec  2100.2  Type=RHF/RHF (state 1.1)

 DUMP ORBITAL  1.1 AS ORBITAL    1  occ=    2.0000  eig=  -11.2101  GROUP=   2
 DUMP ORBITAL  1.3 AS ORBITAL    2  occ=    2.0000  eig=  -11.2095  GROUP=   2
 DUMP ORBITAL  2.1 AS ORBITAL    3  occ=    2.0000  eig=   -1.0190  GROUP=   2
 DUMP ORBITAL  2.3 AS ORBITAL    4  occ=    2.0000  eig=   -0.8422  GROUP=   2
 DUMP ORBITAL  1.2 AS ORBITAL    5  occ=    2.0000  eig=   -0.5974  GROUP=   2
 DUMP ORBITAL  3.3 AS ORBITAL    6  occ=    2.0000  eig=   -0.5974  GROUP=   2
 DUMP ORBITAL  3.1 AS ORBITAL    7  occ=    2.0000  eig=   -0.5102  GROUP=   2
 DUMP ORBITAL  1.4 AS ORBITAL    8  occ=    2.0000  eig=   -0.4868  GROUP=   2
 DUMP ORBITAL  4.1 AS ORBITAL    9  occ=    2.0000  eig=   -0.4868  GROUP=   2

 Total charge:      18.000000
 Frequency information read from record  5400.2

 **********************************************************************************************************************************

 MP2/cc-pVTZ energy=    -79.629908282700

       OPTG(MP2)             MP2          HF-SCF
    -79.62990828    -79.20468351    -78.82386742
 **********************************************************************************************************************************
 Molpro calculation terminated
