[Molden Format]
[Molpro variables]
_NUMVAR=  1082.000000000000    
_AVOGAD= 0.6022140760000000E+24
_BOLTZ= 0.1380649000000000E-22
_CLIGHTSI=  299792458.0000000    
_JOULE= 0.4359744722207100E-17
_JPCAL=  4.184000000000000    
_PLANCK= 0.6626070150000000E-33
_BOHR= 0.5291772109030000E-10
_ECHARG= 0.1602176634000000E-18
_ENULL= 0.8854187812800001E-11
_MU= 0.1660539066600000E-26
_EMASS= 0.9109383701500001E-30
_AMU2AU=  1822.888486217313    
_CLIGHT=  29979245800.00000    
_EV= 0.3674932217565494E-01
_KJOULE= 0.3808798847133432E-03
_KJOULE/MOL= 0.3808798847133432E-03
_CM= 0.4556335252912009E-05
_CM-1= 0.4556335252912009E-05
_DEB2SI= 0.3335640951981520E-29
_KCAL= 0.1593601437640628E-02
_KCAL/MOL= 0.1593601437640628E-02
_KELVIN= 0.3166811563455608E-05
_HERTZ= 0.1519829846057038E-15
_HZ= 0.1519829846057038E-15
_TOA= 0.5291772109030000    
_TOANG= 0.5291772109030000    
_TORAD= 0.1745329251994330E-01
_TOCM=  219474.6313631965    
_TODEBYE=  2.541746473194078    
_TOE= 0.4803204712570263E-09
_TOEV=  27.21138624598803    
_TOHERTZ=  6579683920501656.    
_TOHZ=  6579683920501656.    
_TOK=  315775.0248040668    
_TOKCAL=  627.5094740630558    
_TOKELVIN=  315775.0248040668    
_TOKJ=  2625.499639479825    
_TOKJOULE=  2625.499639479825    
_TOKG= 0.1660539066600000E-26
_ANG=  1.889726124625770    
_ANGSTROM=  1.889726124625770    
_RPAREF=  0.000000000000000    
_RPADISS=  0.000000000000000    
_IGNORE_UNDEF=  2.000000000000000    
_STRICTCHECK=  0.000000000000000    
!SEWARD=  0.000000000000000    
!MULTI=  0.000000000000000    
!DFMULTI=  0.000000000000000    
!NUMHESS=  0.000000000000000    
_SEW_ONEEL=  0.000000000000000    
_CPPDONE=FALSE
_DKROLL_DONE=  0.000000000000000    
_FNUC_DONE=  0.000000000000000    
_FOCKDONE=TRUE
_GRADONE=FALSE
_HESSDONE=TRUE
_INTDONE=TRUE
_SCFDONE=TRUE
_MODUL_BLOCK=FALSE
_MODUL_SLATER=TRUE
_MODUL_MRCC=FALSE
_MODUL_NBO6=FALSE
_MODUL_NECI=FALSE
_MODUL_AIMS=TRUE
_MODUL_HDF5=FALSE
_MODUL_GECCO=FALSE
_ISWINDOWS=FALSE
_MRCC_EXEC=
_FITC_AO_SAVED=FALSE
_FITC_MO_SAVED=FALSE
_LSTYP=SEWARD
_INTYP=INTS
_GEOMTYP=XYZ
_GRADTYP=ALASKA
_DIRECT=FALSE
_DKHO= -1.000000000000000    
_FNUC=  0.000000000000000    
_SYNCM=  0.000000000000000    
_BASIS=6-311G(D,P)
_ZCENTRE=MASS
_ZORIENT=  1.000000000000000    
_NELEC=  30.00000000000000    
!SPIN=  0.000000000000000    
_OPTCONV= 0.5230359760812933E-02
_QSDSTEP=  0.000000000000000    
_QSDIRC=  0.000000000000000    
_PROGRAM=FREQ
_CPUSTEP=  6.859999999999999    
_SYSSTEP= 0.1900000000000002    
_WALLSTEP=  7.050000000000000    
!DFSCF=  0.000000000000000    
!SCSGRD=  0.000000000000000    
_NCEN=  7.000000000000000    
_CPUTOT=  20.19000000000000    
_DFTEXFAC=  1.000000000000000    
_DMX= 0.4574260059918396    
_DMY=-0.8626618005736567E-02
_DMZ= -2.432699828028045    
_DMX_SCF= 0.4574260059918396    
_DMY_SCF=-0.8626618005736567E-02
_DMZ_SCF= -2.432699828028045    
_FREQUENCIES= 0.2765787046750718E-04
_HOMO=  15.10000000000000    
_EHOMO=-0.4657502658025399    
_LUMO=  16.10000000000000    
_ELUMO= 0.1091204560933684    
_ENERGY= -206.8073164475431    
_ENERGY_METHOD=HF
_ENERGY_BASIS=6-311G(D,P)
_GEOMETRY_METHOD=HF
_GEOMETRY_BASIS=6-311G(D,P)
_ENUC=  85.48738471524128    
_GRADENERG= -206.8073160462023    
_GRADEXFAC=  9999.000000000000    
_GRADMETHOD=  1.000000000000000    
_NMRMETHOD=  0.000000000000000    
_NMRMAGNET=  0.000000000000000    
_VIRIAL=-0.1282531932748574E-03
!GRID_FREEZE= -1.000000000000000    
!NEESE_INDEX=  0.000000000000000    
_ITERATIONS=  13.00000000000000    
_LASTNELEC=  30.00000000000000    
_LASTSPIN=  0.000000000000000    
_LASTSYM=  1.000000000000000    
_MPP_PROG=  1.000000000000000    
_MSNSTATES=  0.000000000000000    
_RS2PHASE=  0.000000000000000    
_NPROC_MPP=  6.000000000000000    
_NPROC_SMP=  6.000000000000000    
_NUMSTEP=  0.000000000000000    
_OPTCONVMX= 0.2968081096038371E-02
_OPTCONVRMS= 0.1350473083220127E-02
_OPTGRAD= 0.3449228753199356E-03
_OPTGRADMX= 0.1908955936721442E-03
_OPTGRADRMS= 0.8905870345600586E-04
!GMAXLAST= 0.1908955936721442E-03
!DMAXLAST= 0.2968081096038371E-02
!DELAST= 0.6159765320035149E-05
_OPTSTEP=  15.00000000000000    
_ORBITAL=  2100.200000000000    
_PI=  3.141592653589793    
_SEIG_MIN= 0.4070146951750678E-02
_SEWPROP=TRUE
_STATUS=  1.000000000000000    
_SYSTOT=  1.770000000000000    
_VERSION=  2024001.000000000    
_WALLTOT=  21.96000000000000    
_ZPE= 0.4802757863487712E-01
_DATE=01-Oct-24
_LASTORB=0
_OUTPUT=/home/lme/decomposing-vibrations/test_calculations/hydrogen_bonded_clusters/CH2O_HCN_cluster/hcn_aldehyd.out
_PGROUP=C1
_TIME=21:50:11
_LIBMOL=/usr/local/molpro/molpro_2024.1.0_sockets/lib/
_VIGRDC=  0.000000000000000    
!VIBCNT=  0.000000000000000    
!SURFREC=  0.000000000000000    
!XSURFREC=  0.000000000000000    
!XPOLYREC=  0.000000000000000    
!ROTREC=  0.000000000000000    
!POLYREC=  0.000000000000000    
!DIPREC=  0.000000000000000    
!DIP4DREC=  0.000000000000000    
!DIPROT=  0.000000000000000    
!DIP4DROT=  0.000000000000000    
!PTREC=  0.000000000000000    
!PT4DREC=  0.000000000000000    
!VSCFREC=  0.000000000000000    
!VCIREC=  0.000000000000000    
!PVCIREC=  0.000000000000000    
!VMP2REC=  0.000000000000000    
!VMCSCFREC=  0.000000000000000    
!VMRCIREC=  0.000000000000000    
!VIBSTATEREC=  0.000000000000000    
!VIBSTATECNT=  0.000000000000000    
!VIBINFO=  0.000000000000000    
!GAREC=  0.000000000000000    
!SCFORB=  21002.00000000000    
!DEFCORE=  4.000000000000000    
!SCORE=  0.000000000000000    
!NEWMOL=  0.000000000000000    
!NEWSYM=  0.000000000000000    
_SLFILES=slscratch
_NGSSTO=  9.000000000000000    
_SIN=SIN
_COS=COS
_TAN=TAN
_ACOS=ACOS
_ASIN=ASIN
_ATAN=ATAN
_COSH=COSH
_SINH=SINH
_TANH=TANH
_ABS=ABS
_MOD=MOD
_ERF=ERF
_REFC=REFC
_ERFC=ERFC
_HYPOT=HYPOT
_J0=J0
_J1=J1
_JN=JN
_GAMMA=GAMMA
_LGAMMA=LGAMMA
_Y0=Y0
_Y1=Y1
_YN=YN
_EXP=EXP
_LOG=LOG
_LOG10=LOG10
_SQRT=SQRT
_INT=INT
_NINT=NINT
_MAX=MAX
_MIN=MIN
_COSMO=  0.000000000000000    
_COSMOIT=  0.000000000000000    
_COSMOES=  0.000000000000000    
_COSMOEDS=  0.000000000000000    
_COSMOEC=  0.000000000000000    
_COSMOEDCORR=  0.000000000000000    
_FEPSI=  1.000000000000000    
_SL_IsMM=  0.000000000000000    
_SL_NSYM=  1.000000000000000    
_SL_System_BitSw=  0.000000000000000    
_SL_Unique_atoms=  0.000000000000000    
_SL_GRAD=  0.000000000000000    
_SL_MAXUPD_Hess=  5.000000000000000    
_SL_N_PRINT_COD=  5.000000000000000    
_SL_PRINT_CODES=  0.000000000000000    
_SL_BasType=  0.000000000000000    
_SL_Energy_Pred=  0.000000000000000    
_SL_New_Coords=  0.000000000000000    
_SL_Total_Nuclea=  0.000000000000000    
_SL_Highest_Mltp=  0.000000000000000    
_SL_Ref_Geom=  0.000000000000000    
_SL_Symmetry_ope=  1.000000000000000    
_SL_agrad=  0.000000000000000    
_SL_GrdMax=  0.000000000000000    
_SL_GrdNorm=  0.000000000000000    
_SL_GrdRMS=  0.000000000000000    
_SL_Hss_Q=  0.000000000000000    
_SL_Hss_X=  0.000000000000000    
_SL_BMxOld=  0.000000000000000    
_SL_KtB=  0.000000000000000    
_SL_TROld=  0.000000000000000    
_SL_No_of_Intern=  0.000000000000000    
_SL_Hess=  0.000000000000000    
_SL_K=  0.000000000000000    
!LATTICE= -1.000000000000000    
!NEWLATTICE=  0.000000000000000    
!LATGRAD_VAR=FALSE
!SEW_LATTICE=  1.000000000000000    
!AIC_ONEEL=  0.000000000000000    
!LOCAL=  0.000000000000000    
!SAVEDOM= -1.000000000000000    
!RESTDOM= -1.000000000000000    
!SAVEDOM_HF= -1.000000000000000    
!RESTDOM_HF= -1.000000000000000    
!HESSREC=  5300.200000000000    
!FREQREC=  5400.200000000000    
!NMODREC=  5450.200000000000    
!GTASKS=  0.000000000000000    
!HTASKS=  0.000000000000000    
!SAVEDOM_EOM= -1.000000000000000    
!RESTDOM_EOM= -1.000000000000000    
!GRADSTATE= -1.000000000000000    
!DEBUG=  0.000000000000000    
!CFIT_CPHF=  0.000000000000000    
!RDOMAUX_CPHF=  0.000000000000000    
!THRAO_CPHF= 0.1000000000000000E-11
!THRMO_CPHF= 0.1000000000000000E-11
!THROV_CPHF= 0.1000000000000000E-13
!THRSW_CPHF= 0.1000000000000000E-11
!THRPROD_CPHF= 0.1000000000000000E-11
!THRAOPR_CPHF= 0.1000000000000000E-11
!CFIT_SCFGRD=  0.000000000000000    
!RDOMAUX_SCFGRD=  0.000000000000000    
!THRAO_SCFGRD= 0.1000000000000000E-11
!THRMO_SCFGRD= 0.1000000000000000E-11
!THROV_SCFGRD= 0.1000000000000000E-13
!THRSW_SCFGRD= 0.1000000000000000E-11
!THRPROD_SCFGRD= 0.1000000000000000E-11
!THRAOPR_SCFGRD= 0.1000000000000000E-11
!LOCFIT_SCF=  0.000000000000000    
!LOCFIT_MP2=  0.000000000000000    
_RIDOM=  0.000000000000000    
!CC2_METHOD=  0.000000000000000    
_BASIS2006=FALSE
_SVDDEL= -1.000000000000000    
_SVDDELA= -1.000000000000000    
_SVDDELP= -1.000000000000000    
_SVDDELF= -1.000000000000000    
_SVDDELS= -1.000000000000000    
_SVDDEL_ABS= -1.000000000000000    
_SVDDELA_ABS= -1.000000000000000    
_SVDDELP_ABS= -1.000000000000000    
_SVDDELF_ABS= -1.000000000000000    
_SVDDELS_ABS= -1.000000000000000    
_MAXBASIS=  0.000000000000000    
!OPT_CONICAL=  0.000000000000000    
!CLEARSP_JGRID=  0.000000000000000    
_GRDHYBR=  0.000000000000000    
_STATEGRAD=  1.000000000000000    
_4EXT_NDISKS=  1.000000000000000    
!EMBEDFLAG=  1.000000000000000    
!EMBED=FALSE
!EMBED_F12=FALSE
!EMBEDNUC=  0.000000000000000    
_EMBEDENERGY=  0.000000000000000    
!EMBED_DFC=FALSE
!NUM_VOIDS=  0.000000000000000    
_IBODY=  0.000000000000000    
_EMBE_CORR=  0.000000000000000    
!EMBED_PROJ=FALSE
!EMB_PROJ_ZMU=  1000000.000000000    
!CORRECTION_HF=  0.000000000000000    
!EMBED_AORB=  0.000000000000000    
!EMBED_NACORR=  0.000000000000000    
!EMBED_MP2=FALSE
!EMBED_TRUNC_PERTURBATION=FALSE
!EMBED_FROZEN=  0.000000000000000    
!EMBED_ACTIVE=  0.000000000000000    
_CHANGE_BASIS=FALSE
_RESTORE_BASIS=FALSE
_FIX_EMBED_GUESS=FALSE
_EMBED_SCF=FALSE
_NEOBAS=FALSE
_NEOOVE=FALSE
_PRINEO=FALSE
_HUZINAGA_T=FALSE
_HUZINAGA_F=FALSE
_HUZINAGA=FALSE
_HUZINAGA_CORRECT=FALSE
!FASTLATGRAD=  1.000000000000000    
!FASTVLAMBDA= -1.000000000000000    
!IFORCE= -1.000000000000000    
!USESYM= -1.000000000000000    
_SINDEX=  0.000000000000000    
_AVDOM_OSV=  0.000000000000000    
_AVDOM_PNO=  0.000000000000000    
_AVDOM_PNOCC=  0.000000000000000    
_AVDOM_TNO=  0.000000000000000    
_AVDOM_TNOIT=  0.000000000000000    
_AVDOM_PAO=  0.000000000000000    
_AVDOM_LMO=  0.000000000000000    
_CC2OSV_FLAG=  0.000000000000000    
_EOMCCSD_CONV=FALSE
_TMADC2_FLAG=FALSE
_PROPADC2_FLAG=FALSE
_LEN_VirQ=  0.000000000000000    
_GRDCC2LR_FLAG=FALSE
_GRDADC2_FLAG=FALSE
_RO_VGLOBAL=  0.000000000000000    
_OPT=FALSE
_FREQ=FALSE
_HESS=FALSE
_CMRCC_callName=EMPTY
_CMRCC_callCount=  0.000000000000000    
_GECCO_CIROOT=  1.000000000000000    
_SYM_CATION=  1.000000000000000    
_MON_A=FALSE
_MON_B=FALSE
_MAXGEOM=  100.0000000000000    
!MAXGEOM=  100.0000000000000    
_NCORE=  0.000000000000000    
_NLARGECORE=  0.000000000000000    
GX1= 0.2990262547604816    
GY1=-0.7228992567063621E-03
GZ1= -2.500139044921797    
GX2=-0.1570296871370351    
GY2=-0.9071109172595177E-02
GZ2= -3.492971380976296    
GX3=  1.391577004276874    
GY3= 0.4971802417763299E-02
GZ3= -2.469905194297885    
GX4=-0.3562374146605165    
GY4= 0.2086976993037302E-02
GZ4= -1.516430054812549    
GX5=-0.3441356514884343E-01
GY5=-0.3625764377248192E-02
GZ5=  1.690447962837812    
GX6=-0.1588564966291559    
GY6=-0.8435439618821736E-02
GZ6= 0.6344781687058174    
GX7= 0.1027292593414734    
GY7= 0.2244920949176134E-02
GZ7=  2.809494514926325    
CX1= 0.5650777255698832    
CY1=-0.1366081610870563E-02
CZ1= -4.724578068385641    
HX2=-0.2967431021246664    
HY2=-0.1714191198278556E-01
HZ2= -6.600759271201061    
HX3=  2.629699419410475    
HY3= 0.9395344915324873E-02
HZ3= -4.667444371013603    
OX4=-0.6731911490531214    
OY4= 0.3943814945235524E-02
OZ4= -2.865637490746963    
CX5=-0.6503221310328036E-01
CY5=-0.6851701665423395E-02
CZ5=  3.194483677695026    
HX6=-0.3001952717466416    
HY6=-0.1594067062039068E-01
HZ6=  1.198989970908100    
NX7= 0.1941301651410382    
NY7= 0.4242285765377820E-02
NZ7=  5.309175181849081    
[Atoms] Angs
C     1    6         0.2990262548       -0.0007228993       -2.5001390449
H     2    1        -0.1570296871       -0.0090711092       -3.4929713810
H     3    1         1.3915770043        0.0049718024       -2.4699051943
O     4    8        -0.3562374147        0.0020869770       -1.5164300548
C     5    6        -0.0344135651       -0.0036257644        1.6904479628
H     6    1        -0.1588564966       -0.0084354396        0.6344781687
N     7    7         0.1027292593        0.0022449209        2.8094945149
[GTO]
   1 0
 s    6  1.00
  0.4563240000D+04  0.1966650249D-02
  0.6820240000D+03  0.1523060193D-01
  0.1549730000D+03  0.7612690966D-01
  0.4445530000D+02  0.2608010331D+00
  0.1302900000D+02  0.6164620782D+00
  0.1827730000D+01  0.2210060280D+00
 s    3  1.00
  0.2096420000D+02  0.1146600807D+00
  0.4803310000D+01  0.9199996477D+00
  0.1459330000D+01 -0.3030682134D-02
 s    1  1.00
  0.4834560000D+00  0.1000000000D+01
 s    1  1.00
  0.1455850000D+00  0.1000000000D+01
 p    3  1.00
  0.2096420000D+02  0.4024869267D-01
  0.4803310000D+01  0.2375939567D+00
  0.1459330000D+01  0.8158538515D+00
 p    1  1.00
  0.4834560000D+00  0.1000000000D+01
 p    1  1.00
  0.1455850000D+00  0.1000000000D+01
 d    1  1.00
  0.6260000000D+00  0.1000000000D+01
  
   2 0
 s    3  1.00
  0.3386500000D+02  0.2549381454D-01
  0.5094790000D+01  0.1903731086D+00
  0.1158790000D+01  0.8521614860D+00
 s    1  1.00
  0.3258400000D+00  0.1000000000D+01
 s    1  1.00
  0.1027410000D+00  0.1000000000D+01
 p    1  1.00
  0.7500000000D+00  0.1000000000D+01
  
   3 0
 s    3  1.00
  0.3386500000D+02  0.2549381454D-01
  0.5094790000D+01  0.1903731086D+00
  0.1158790000D+01  0.8521614860D+00
 s    1  1.00
  0.3258400000D+00  0.1000000000D+01
 s    1  1.00
  0.1027410000D+00  0.1000000000D+01
 p    1  1.00
  0.7500000000D+00  0.1000000000D+01
  
   4 0
 s    6  1.00
  0.8588500000D+04  0.1895150083D-02
  0.1297230000D+04  0.1438590063D-01
  0.2992960000D+03  0.7073200310D-01
  0.8737710000D+02  0.2400010105D+00
  0.2567890000D+02  0.5947970261D+00
  0.3740040000D+01  0.2808020123D+00
 s    3  1.00
  0.4211750000D+02  0.1138890124D+00
  0.9628370000D+01  0.9208111006D+00
  0.2853320000D+01 -0.3274470358D-02
 s    1  1.00
  0.9056610000D+00  0.1000000000D+01
 s    1  1.00
  0.2556110000D+00  0.1000000000D+01
 p    3  1.00
  0.4211750000D+02  0.3651139738D-01
  0.9628370000D+01  0.2371529830D+00
  0.2853320000D+01  0.8197019412D+00
 p    1  1.00
  0.9056610000D+00  0.1000000000D+01
 p    1  1.00
  0.2556110000D+00  0.1000000000D+01
 d    1  1.00
  0.1292000000D+01  0.1000000000D+01
  
   5 0
 s    6  1.00
  0.4563240000D+04  0.1966650249D-02
  0.6820240000D+03  0.1523060193D-01
  0.1549730000D+03  0.7612690966D-01
  0.4445530000D+02  0.2608010331D+00
  0.1302900000D+02  0.6164620782D+00
  0.1827730000D+01  0.2210060280D+00
 s    3  1.00
  0.2096420000D+02  0.1146600807D+00
  0.4803310000D+01  0.9199996477D+00
  0.1459330000D+01 -0.3030682134D-02
 s    1  1.00
  0.4834560000D+00  0.1000000000D+01
 s    1  1.00
  0.1455850000D+00  0.1000000000D+01
 p    3  1.00
  0.2096420000D+02  0.4024869267D-01
  0.4803310000D+01  0.2375939567D+00
  0.1459330000D+01  0.8158538515D+00
 p    1  1.00
  0.4834560000D+00  0.1000000000D+01
 p    1  1.00
  0.1455850000D+00  0.1000000000D+01
 d    1  1.00
  0.6260000000D+00  0.1000000000D+01
  
   6 0
 s    3  1.00
  0.3386500000D+02  0.2549381454D-01
  0.5094790000D+01  0.1903731086D+00
  0.1158790000D+01  0.8521614860D+00
 s    1  1.00
  0.3258400000D+00  0.1000000000D+01
 s    1  1.00
  0.1027410000D+00  0.1000000000D+01
 p    1  1.00
  0.7500000000D+00  0.1000000000D+01
  
   7 0
 s    6  1.00
  0.6293480000D+04  0.1969788147D-02
  0.9490440000D+03  0.1496128592D-01
  0.2187760000D+03  0.7350053084D-01
  0.6369160000D+02  0.2489367658D+00
  0.1882820000D+02  0.6024594331D+00
  0.2720230000D+01  0.2562017589D+00
 s    3  1.00
  0.3063310000D+02  0.1119060795D+00
  0.7026140000D+01  0.9216666549D+00
  0.2112050000D+01 -0.2569191826D-02
 s    1  1.00
  0.6840090000D+00  0.1000000000D+01
 s    1  1.00
  0.2008780000D+00  0.1000000000D+01
 p    3  1.00
  0.3063310000D+02  0.3831191864D-01
  0.7026140000D+01  0.2374031155D+00
  0.2112050000D+01  0.8175923978D+00
 p    1  1.00
  0.6840090000D+00  0.1000000000D+01
 p    1  1.00
  0.2008780000D+00  0.1000000000D+01
 d    1  1.00
  0.9130000000D+00  0.1000000000D+01


[MO]
 Sym=      1.1
 Ene=     -20.5977
 Spin= Alpha
 Occup=    2.000000
1 0.000004531556101
2 -0.000061756748836
3 0.000240198725472
4 0.000352297471741
5 -0.000063014223925
6 0.000000327879830
7 0.000087901384771
8 -0.000136928566266
9 0.000000279784971
10 0.000224919947832
11 -0.000119444098979
12 0.000000539353953
13 0.000183156217214
14 -0.000034733998954
15 -0.000035115428936
16 0.000069849427891
17 -0.000000469483226
18 -0.000104491218238
19 0.000000062318769
20 0.000007343630795
21 -0.000042219933747
22 0.000014162453195
23 0.000016607453785
24 0.000000031278089
25 -0.000009821661687
26 0.000004472524729
27 -0.000020260531066
28 -0.000013499437241
29 -0.000001772838984
30 -0.000000145112730
31 -0.000022596228682
32 0.55144955656010
33 0.47169148318243
34 0.005505877729263
35 -0.000747407824640
36 0.000979173391671
37 -0.000003944493238
38 -0.001333876285021
39 -0.000305387870450
40 0.000000873843721
41 0.000443866327628
42 -0.000005346409846
43 0.000000744333133
44 -0.000079184646631
45 0.000124285592771
46 -0.000225981866990
47 0.000101696274219
48 0.000002265165267
49 0.000028913635128
50 0.000002418636441
51 0.000000828547713
52 -0.000003463434222
53 0.000044838316370
54 -0.000323480035326
55 -0.000000139211521
56 0.000000172200370
57 0.000002185001299
58 -0.000002155315364
59 -0.000000639011054
60 -0.000026956160166
61 0.000027699452976
62 0.000001875410338
63 0.000257905055492
64 0.000018915959033
65 0.000019708600845
66 -0.000038624559879
67 0.000000002443312
68 -0.000007627827032
69 0.000000008608896
70 -0.000023513774382
71 0.000132973469424
72 0.000350730967526
73 0.000000637248088
74 0.000000566049703
75 -0.000002156770137
76 0.000000488893484
77 -0.000003980644996
78 0.000034005638273
79 -0.000091413682255
80 0.000000068004486
81 -0.000000026160834
82 -0.000001403880192
83 -0.000003298851415
84 -0.000000064188531
85 -0.000018566350933
86 0.000000232779154
87 -0.000000429298132
88 -0.000014960702736
89 -0.000005845414525
90 -0.000006147065013
91 0.000011992479538
92 0.000000026803916
93 0.000002706232790
94 0.000000212139762
 Sym=      2.1
 Ene=     -15.5645
 Spin= Alpha
 Occup=    2.000000
1 -0.000000040216949
2 0.000000388553515
3 -0.000006705105443
4 -0.000034778687576
5 -0.000000845251217
6 0.000000042068402
7 -0.000000369002891
8 0.000004999273582
9 -0.000000169140737
10 -0.000001971752747
11 0.000011671337884
12 -0.000000094546077
13 -0.000025387660176
14 -0.000002953310583
15 0.000001710339295
16 0.000001242971287
17 0.000000042153733
18 0.000000655126821
19 -0.000000063233261
20 0.000000902965842
21 -0.000002133552721
22 -0.000001803411578
23 -0.000001910334393
24 -0.000000001524681
25 0.000000702640316
26 -0.000000439813795
27 0.000005982680809
28 -0.000007979982161
29 -0.000000560330040
30 0.000000015349098
31 0.000001692984414
32 -0.000000166536007
33 -0.000000907153175
34 0.000005020051916
35 0.000006657030357
36 0.000000761734643
37 0.000000049629679
38 -0.000002509204767
39 -0.000002482850589
40 -0.000000186747321
41 0.000012113717221
42 0.000012694450405
43 0.000000448056744
44 -0.000047903714929
45 -0.000000098480592
46 -0.000000502769457
47 0.000000601250049
48 0.000000023522471
49 -0.000001275368089
50 0.000000010700079
51 0.000104857516829
52 -0.000027168748097
53 0.000453539914528
54 0.000349064165983
55 0.000030341320555
56 0.000001312134292
57 0.000247493562192
58 0.000032564733673
59 0.000001306368083
60 0.000268417961116
61 0.000092141854632
62 0.000003871916705
63 0.000759447746662
64 -0.000030539907112
65 -0.000032090044699
66 0.000062629951811
67 0.000000082489974
68 0.000013976567534
69 0.000000649734817
70 -0.000053733442881
71 0.000246750572952
72 0.000290935130774
73 0.000002829270809
74 0.000000162493215
75 0.000024577584338
76 0.55771094657404
77 0.46835234344200
78 0.004457769256147
79 -0.000988579824816
80 -0.000245382077489
81 -0.000010836506098
82 -0.002013225982682
83 0.000058263424869
84 0.000002621729310
85 0.000477527199095
86 0.000006615145238
87 0.000000245225464
88 0.000049122178741
89 -0.000239242795157
90 -0.000250202478148
91 0.000489445273305
92 0.000000543444492
93 0.000104530146785
94 0.000004428714506
 Sym=      3.1
 Ene=     -11.3613
 Spin= Alpha
 Occup=    2.000000
1 0.56338524302686
2 0.46663478410786
3 0.003936816564195
4 -0.000019203320630
5 -0.000219928101543
6 0.000001222664455
7 0.000358662841345
8 -0.000124714621898
9 0.000000488931307
10 0.000157578457455
11 -0.000189836325451
12 0.000000727603858
13 0.000264688336425
14 0.000162757449793
15 -0.000502520454701
16 0.000339763004909
17 0.000002169905108
18 -0.000260920823722
19 0.000004691171256
20 0.000387931375891
21 -0.000043287923499
22 0.000191454907469
23 -0.000019780449901
24 0.000000117640251
25 0.000033959670820
26 0.000390298489196
27 -0.000044557727234
28 0.000217237132777
29 -0.000024673783993
30 0.000000070298059
31 0.000035231319885
32 -0.000228303357112
33 -0.000337090615773
34 0.000691893712830
35 -0.000557631707453
36 0.000196488536060
37 -0.000000883423628
38 -0.000285854099225
39 0.000309020222769
40 -0.000001083108751
41 -0.000493568462181
42 -0.000173419381196
43 0.000000296106395
44 0.000354246704971
45 -0.000052778671594
46 -0.000045328687845
47 0.000098107359439
48 -0.000001416090977
49 -0.000217471237953
50 -0.000000043274513
51 0.000001408535651
52 0.000002485817749
53 -0.000027301682840
54 0.000254331057698
55 0.000000290738915
56 -0.000000130067926
57 -0.000000425580224
58 0.000000681686495
59 0.000000494272158
60 0.000013424020958
61 -0.000019447045458
62 -0.000001414725744
63 -0.000164080542982
64 -0.000014126069408
65 -0.000014935973767
66 0.000029062043175
67 0.000000009648085
68 0.000007787785463
69 0.000000028585874
70 0.000011559370600
71 -0.000088617521945
72 -0.000269992367461
73 0.000001938426184
74 -0.000000425687953
75 -0.000005581325722
76 -0.000000087724445
77 0.000002139127466
78 -0.000020033590635
79 0.000038562144825
80 0.000000114074933
81 0.000000026359164
82 0.000000497868727
83 0.000001328928102
84 0.000000004704270
85 0.000014158072704
86 0.000001643423829
87 0.000000442385805
88 0.000016282644265
89 0.000004329311237
90 0.000004387514243
91 -0.000008716825480
92 -0.000000015108559
93 -0.000001400379168
94 -0.000000145126463
 Sym=      4.1
 Ene=     -11.2549
 Spin= Alpha
 Occup=    2.000000
1 -0.000001568916141
2 -0.000002541514661
3 0.000016917698417
4 0.000045701461625
5 0.000003303699852
6 -0.000000043067578
7 0.000000329110991
8 -0.000020845177942
9 0.000000186930395
10 0.000006928027674
11 -0.000043100885746
12 -0.000000040615986
13 -0.000003766092343
14 0.000002377527516
15 -0.000000036969427
16 -0.000002340558089
17 -0.000000095353948
18 -0.000001780756988
19 0.000000125064409
20 0.000000860511479
21 -0.000016205542767
22 -0.000012053027580
23 0.000002629157290
24 -0.000000025713430
25 -0.000003024520474
26 -0.000002211919368
27 0.000021196919548
28 0.000005819907948
29 -0.000004678653191
30 -0.000000046491084
31 0.000000526962795
32 0.000000926442957
33 0.000002726064264
34 -0.000014241724679
35 -0.000015611806050
36 0.000000164560372
37 -0.000000034949270
38 0.000001658108156
39 -0.000004504090720
40 0.000000159950667
41 -0.000025375546861
42 0.000001653200458
43 -0.000000462189807
44 0.000092225702422
45 -0.000000598346172
46 -0.000001522374161
47 0.000002120720333
48 -0.000000035542964
49 0.000003406772340
50 -0.000000067426232
51 0.56309515243950
52 0.46646356780690
53 0.005325806603286
54 0.001283717308394
55 -0.000044866109180
56 -0.000002482648590
57 -0.000380316616767
58 0.000117097167910
59 0.000005644169701
60 0.000915264473225
61 -0.000024797705067
62 -0.000001232659943
63 -0.000215817405483
64 -0.000977075788581
65 -0.001021015548661
66 0.001998091337242
67 0.000002079884116
68 0.000420383412608
69 0.000017245302546
70 0.000048655437125
71 -0.001145090621088
72 -0.000091494163888
73 -0.000078894286739
74 -0.000003062124462
75 -0.000682938724770
76 -0.000566185032599
77 -0.000557093094528
78 -0.000297865284671
79 -0.000735715805352
80 -0.000053812357788
81 -0.000002323915631
82 -0.000438290879469
83 0.000043158694029
84 0.000002051968732
85 0.000329957674549
86 0.000036818698529
87 0.000001642668683
88 0.000307012901986
89 -0.000046014356204
90 -0.000047712208211
91 0.000093726564415
92 0.000000062361171
93 0.000018131360369
94 0.000000592565201
 Sym=      5.1
 Ene=      -1.4501
 Spin= Alpha
 Occup=    2.000000
1 -0.061033001832034
2 -0.097950535741878
3 0.24937245168363
4 0.042402865765358
5 -0.048046234122866
6 0.000202013444099
7 0.072559231761541
8 -0.067773406233409
9 0.000291782883739
10 0.10147855366320
11 0.003039615189895
12 -0.000026159003465
13 -0.007430604977217
14 -0.003489892422438
15 -0.014298709898802
16 0.017788602321240
17 -0.000124700037437
18 -0.029669293524359
19 0.000084393180304
20 0.016971738620900
21 0.020282543275958
22 -0.005512256065451
23 -0.000045338180700
24 0.000042017612572
25 0.007040146436320
26 0.016888899947000
27 0.021047784961456
28 -0.003876572314219
29 -0.006550918712534
30 -0.000015480201394
31 0.002989167543853
32 -0.10604135557264
33 -0.17698005905726
34 0.49821803833849
35 0.34486196552146
36 0.036740516527556
37 -0.000161921122833
38 -0.053713802151546
39 0.056037318841526
40 -0.000241791512867
41 -0.082367159914028
42 0.021934519070267
43 -0.000129451168242
44 -0.024800879579711
45 -0.000723425108733
46 -0.009150735166132
47 0.009874160274866
48 -0.000044788305073
49 -0.014491207888716
50 0.000057510143154
51 -0.000349028502388
52 -0.000526817953573
53 0.000040216436171
54 0.007942788149249
55 -0.000058897320076
56 -0.000002799458866
57 -0.000521572393741
58 0.000077556310374
59 0.000008266575225
60 0.000386272395069
61 -0.000962466403676
62 -0.000041384970788
63 -0.008714621590537
64 -0.000589837093187
65 -0.000606244755611
66 0.001196081848798
67 0.000000423875174
68 0.000196198279870
69 0.000004177190937
70 0.002177587441330
71 -0.000949203058101
72 -0.008949365731136
73 -0.000096800668121
74 -0.000005120108254
75 -0.000444126247211
76 -0.000077810540024
77 -0.000057182989138
78 -0.000735654465022
79 0.004574753353404
80 -0.000011038916046
81 -0.000000380996194
82 -0.000071841265669
83 0.000082544182150
84 0.000004220668141
85 0.000440238328635
86 -0.000061642487156
87 -0.000001402406278
88 -0.000129059549515
89 0.000131271041655
90 0.000140422886605
91 -0.000271693928261
92 -0.000000575693039
93 -0.000071382145004
94 -0.000003963050846
 Sym=      6.1
 Ene=      -1.2282
 Spin= Alpha
 Occup=    2.000000
1 0.000323032554895
2 0.000505508721337
3 -0.000887373053317
4 0.002877189601200
5 0.000298418282917
6 -0.000003398626757
7 -0.000256563080991
8 0.000045711092959
9 0.000010159171246
10 -0.000291397664814
11 -0.000837064718525
12 0.000009566001957
13 0.003275553728351
14 0.000268347216682
15 -0.000093179359693
16 -0.000175167856989
17 -0.000001582241591
18 -0.000010604963406
19 0.000002633596787
20 -0.000212315109863
21 0.000329985112041
22 0.000545863393156
23 0.000139575837673
24 0.000000480677102
25 -0.000053524177386
26 -0.000026944655972
27 -0.001110745953705
28 0.000981516568301
29 0.000154282959664
30 -0.000000305599556
31 -0.000186877094383
32 0.000195126688606
33 0.000344585810232
34 -0.001174550071849
35 -0.001126116544494
36 -0.000188520913037
37 -0.000001172277320
38 0.000812113313417
39 -0.000027689769604
40 0.000009680489908
41 0.000479309471934
42 -0.001356652277667
43 -0.000031626005113
44 0.004794389589273
45 -0.000004344097437
46 0.000042257026725
47 -0.000037912929288
48 -0.000000573915163
49 0.000161441469573
50 -0.000000845440272
51 -0.081110405516862
52 -0.13114792903415
53 0.31878176755911
54 0.075218800496387
55 0.013134551827622
56 0.000559105634753
57 0.10668892666059
58 0.013290883247070
59 0.000568488151300
60 0.10677778446666
61 -0.006146570127509
62 -0.000275408731287
63 -0.053041456120334
64 -0.016363763733258
65 -0.017114557554299
66 0.033478321287557
67 0.000035427667950
68 0.007081557389587
69 0.000291093671415
70 0.015609868137542
71 -0.011178553395657
72 -0.029539227534230
73 -0.000752179635968
74 -0.000031210501643
75 -0.006786901565872
76 -0.097888508410770
77 -0.16143897178643
78 0.41740137855708
79 0.32879115843424
80 -0.011310790925499
81 -0.000484880605002
82 -0.092717814716446
83 -0.015886815418758
84 -0.000678835344481
85 -0.13067527263884
86 -0.007791949277329
87 -0.000336832075850
88 -0.064047738652084
89 -0.014007039070743
90 -0.014650419620821
91 0.028657458691564
92 0.000031633279411
93 0.006092815835702
94 0.000259080747766
 Sym=      7.1
 Ene=      -0.8940
 Spin= Alpha
 Occup=    2.000000
1 -0.087591785557556
2 -0.14657024656708
3 0.39952448625654
4 0.25141017995008
5 0.041599554273141
6 -0.000174814021615
7 -0.063920704794739
8 0.060168258397445
9 -0.000252379511731
10 -0.091369780484707
11 0.037725078573395
12 -0.000146348451785
13 -0.050368945522491
14 0.009015499002051
15 -0.010135099434799
16 0.001119600432748
17 0.000172208178791
18 0.010067100213405
19 0.000126892112590
20 0.10543737051555
21 0.15321752312058
22 0.005094685144171
23 0.012516109656002
24 0.000180933416102
25 0.019131099932356
26 0.10541047288871
27 0.15012094726682
28 0.003459579190933
29 -0.022039252125752
30 -0.000136698708343
31 -0.004018147369375
32 0.047277181877954
33 0.079911560941489
34 -0.23541009224546
35 -0.25160669194704
36 0.039556352212149
37 -0.000158198413927
38 -0.063323059050236
39 0.059860387473192
40 -0.000236458184287
41 -0.096136717059782
42 0.037313842851676
43 -0.000132202579975
44 -0.065282121700304
45 -0.000808455430870
46 -0.002072679495464
47 0.002881134926334
48 -0.000029212947133
49 -0.006121335770217
50 0.000014298550510
51 0.003997810830913
52 0.006755329092924
53 -0.017899152609510