
 Working directory              : /tmp/koe/molpro.Uu2lcGypZQ/
 Global scratch directory       : /tmp/koe/molpro.Uu2lcGypZQ/
 Wavefunction directory         : /home/koe/wfu/
 Main file repository           : /tmp/koe/molpro.Uu2lcGypZQ/

 id        : liedlgroup

 Nodes     nprocs
 zh2-c724     6
 GA implementation: MPI file
 GA implementation (serial work in mppx): MPI file

 Using customized tuning parameters: mindgm=1; mindgv=20; mindgc=4; mindgr=1; noblas=0; minvec=7
 default implementation of scratch files=sf  


 Variables initialized (1025), CPU time= 0.01 sec
 ***,hcocn
 memory,300, m
 gthresh,optgrad=1.d-7,twoint=1.d-14,prefac=1.d-16
 orient,mass
 geomtyp=xyz
 geometry={
 5                                                                               ! number of atoms
 C1,                 -2.84517338,    0.29411764,   -0.03724533
 H1,                 -2.31200963,   -0.63358728,   -0.03724533
 O1,                 -2.21813295,    1.38516799,   -0.03724533
 C2,                 -4.38517338,    0.29411764,   -0.03724533
 N1,                 -5.53177338,    0.29411764,   -0.03724533
 }
 
 mass,iso
 basis=6-311g(d,p)
 
 {hf
 start,atden}
 
 
 optg
 {frequencies, symm=auto, print=0,analytical}
 put,molden,hcocn.molden
 Commands initialized (840), CPU time= 0.01 sec, 684 directives.
 Default parameters read. Elapsed time= 0.08 sec

 Checking input...
 Passed
1


                                         ***  PROGRAM SYSTEM MOLPRO  ***
                                       Copyright, TTI GmbH Stuttgart, 2015
                                    Version 2022.3 linked Wed Nov 30 12:40:34 2022


 **********************************************************************************************************************************
 LABEL *   hcocn                                                                         
  (6 PROC) 64 bit mpp version                                                            DATE: 26-Sep-23          TIME: 15:13:14  
 **********************************************************************************************************************************

 SHA1:             e31ec9a5ea85254ab76f59d122cbdd51c71cf98b
 **********************************************************************************************************************************

 Memory per process:       300 MW
 Total memory per node:   1800 MW

 GA preallocation disabled
 GA check disabled

 Variable memory set to 300.0 MW


 THRESHOLDS:

 ZERO    =  1.00D-12  ONEINT  =  1.00D-12  TWOINT  =  1.00D-14  PREFAC  =  1.00D-16  XXXXXX  =  1.00D-09  EORDER  =  1.00D-04
 ENERGY  =  0.00D+00  ETEST   =  0.00D+00  EDENS   =  0.00D+00  THRDEDEF=  1.00D-06  GRADIENT=  1.00D-05  STEP    =  1.00D-03
 ORBITAL =  1.00D-05  CIVEC   =  1.00D-05  COEFF   =  1.00D-04  PRINTCI =  5.00D-02  PUNCHCI =  9.90D+01  OPTGRAD =  1.00D-07
 OPTENERG=  1.00D-06  OPTSTEP =  3.00D-04  THRGRAD =  1.00D-10  COMPRESS=  1.00D-11  VARMIN  =  1.00D-07  VARMAX  =  1.00D-03
 THRDOUB =  0.00D+00  THRDIV  =  1.00D-05  THRRED  =  1.00D-07  THRPSP  =  1.00D+00  THRDC   =  1.00D-10  THRCS   =  1.00D-10
 THRNRM  =  1.00D-08  THREQ   =  0.00D+00  THRDE   =  1.00D+00  THRREF  =  1.00D-05  SPARFAC =  1.00D+00  THRDLP  =  1.00D-07
 THRDIA  =  1.00D-10  THRDLS  =  1.00D-07  THRGPS  =  0.00D+00  THRKEX  =  0.00D+00  THRDIS  =  2.00D-01  THRVAR  =  1.00D-10
 THRLOC  =  1.00D-06  THRGAP  =  1.00D-06  THRLOCT = -1.00D+00  THRGAPT = -1.00D+00  THRORB  =  1.00D-06  THRMLTP =  0.00D+00
 THRCPQCI=  1.00D-10  KEXTA   =  0.00D+00  THRCOARS=  0.00D+00  SYMTOL  =  1.00D-06  GRADTOL =  1.00D-06  THROVL  =  1.00D-08
 THRORTH =  1.00D-08  THRDLOVL= -1.00D+00  GRID    =  1.00D-06  GRIDMAX =  1.00D-03  DTMAX   =  0.00D+00  THROCCDE=  1.00D-01
 THROCCDE=  1.00D-01  THRPRINT=  2.50D-01

 SETTING GEOMTYP        =    XYZ
 ZCENTRE=MASS



 Using masses of most abundant isotopes

 **********************************************************************************************************************************
 SETTING BASIS          =    6-311G(D,P)


 Recomputing integrals since basis changed


 Using spherical harmonics

 Library entry C      S 6-311G               selected for orbital group  1
 Library entry C      P 6-311G               selected for orbital group  1
 Library entry C      D 6-311G*              selected for orbital group  1
 Library entry H      S 6-311G               selected for orbital group  2
 Library entry H      P 6-311G**             selected for orbital group  2
 Library entry O      S 6-311G               selected for orbital group  3
 Library entry O      P 6-311G               selected for orbital group  3
 Library entry O      D 6-311G*              selected for orbital group  3
 Library entry N      S 6-311G               selected for orbital group  5
 Library entry N      P 6-311G               selected for orbital group  5
 Library entry N      D 6-311G*              selected for orbital group  5


 PROGRAM * SEWARD (Integral evaluation for generally contracted gaussian basis sets)     Author: Roland Lindh, 1990

 Geometry written to block  1 of record 700

 Orientation using atomic masses  
 Molecule type: Asymmetric top
 Symmetry elements: X
 Rotational constants:       4.4581170      4.8186259     59.5879956 GHz

 Point group  Cs  



 ATOMIC COORDINATES

 NR  ATOM    CHARGE       X              Y              Z

   1  C1      6.00    0.000000000    0.953229226    1.363966496
   2  H1      1.00    0.000000000    2.907473705    1.883043219
   3  O1      8.00    0.000000000   -0.731286496    3.042489637
   4  C2      6.00    0.000000000    0.199461460   -1.446900185
   5  N1      7.00    0.000000000   -0.361752904   -3.539718195

 Bond lengths in Bohr (Angstrom)

 1-2  2.022006956  1-3  2.378031361  1-4  2.910178232  4-5  2.166759974
     ( 1.070000001)     ( 1.258400003)     ( 1.540000000)     ( 1.146600000)

 Bond angles

  1-4-5  179.99999809   2-1-3  120.22694603   2-1-4  119.88652707   3-1-4  119.88652690

 NUCLEAR CHARGE:                   28
 NUMBER OF PRIMITIVE AOS:         136
 NUMBER OF SYMMETRY AOS:          132
 NUMBER OF CONTRACTIONS:           78   (   57A'  +   21A"  )
 NUMBER OF INNER CORE ORBITALS:     0   (    0A'  +    0A"  )
 NUMBER OF OUTER CORE ORBITALS:     4   (    4A'  +    0A"  )
 NUMBER OF VALENCE ORBITALS:       17   (   13A'  +    4A"  )


 NUCLEAR REPULSION ENERGY   86.74083005


 Eigenvalues of metric

         1 0.284E-02 0.599E-02 0.138E-01 0.191E-01 0.285E-01 0.317E-01 0.559E-01 0.775E-01
         2 0.779E-01 0.152E+00 0.202E+00 0.219E+00 0.266E+00 0.373E+00 0.463E+00 0.491E+00


 Contracted 2-electron integrals neglected if value below      1.0D-14
 AO integral compression algorithm  1   Integral accuracy      1.0D-14

     18.612 MB (compressed) written to integral file ( 74.7%)

     Node minimum: 2.359 MB, node maximum: 3.670 MB


 NUMBER OF SORTED TWO-ELECTRON INTEGRALS:     420588.     BUFFER LENGTH:  32768
 NUMBER OF SEGMENTS:   1  SEGMENT LENGTH:     420588      RECORD LENGTH: 524288

 Memory used in sort:       0.98 MW

 SORT1 READ     3121237. AND WROTE      383754. INTEGRALS IN      2 RECORDS. CPU TIME:     0.03 SEC, REAL TIME:     0.04 SEC
 SORT2 READ     2299520. AND WROTE     2539356. INTEGRALS IN     60 RECORDS. CPU TIME:     0.01 SEC, REAL TIME:     0.02 SEC

 Node minimum:      419962.  Node maximum:      426492. integrals

 OPERATOR DM      FOR CENTER  0  COORDINATES:    0.000000    0.000000    0.000000


 **********************************************************************************************************************************
 DATASETS  * FILE   NREC   LENGTH (MB)   RECORD NAMES
              1      18       28.77       500      610      700      900      950      970     1000      129      960     1100   
                                          VAR    BASINP    GEOM    SYMINP    ZMAT    AOBASIS   BASIS     P2S    ABASIS      S 
                                         1400     1410     1200     1210     1080     1600     1650     1700   
                                           T        V       H0       H01     AOSYM     SMH    MOLCAS    OPER   

 PROGRAMS   *        TOTAL       INT
 CPU TIMES  *         0.53      0.38
 REAL TIME  *         0.69 SEC
 DISK USED  *        29.11 MB (local),      237.11 MB (total)
 GA USED    *         0.00 MB       (max)       0.00 MB       (current)
 **********************************************************************************************************************************


 Program * Restricted Hartree-Fock

 Orbital guess generated from atomic densities.

 Initial occupancy:  12   2

 NELEC=   28   SYM=1   MS2= 0   THRE=1.0D-08   THRD=1.0D-06   THRG=1.0D-06  HFMA2=F  DIIS_START=2   DIIS_MAX=10   DIIS_INCORE=F

 Level shifts:    0.00 (CLOSED)    0.00 (OPEN)    0.30 (GAP_MIN)

 ITER           ETOT              DE          GRAD        DDIFF     DIIS  NEXP   TIME(IT)  TIME(TOT)  DIAG
   1     -205.52770623    -205.52770623     0.00D+00     0.73D-01     0     0       0.04      0.10    start
   2     -205.55094908      -0.02324285     0.13D-01     0.14D-01     1     0       0.03      0.13    diag
   3     -205.62491881      -0.07396973     0.13D-01     0.65D-02     2     0       0.03      0.16    diag
   4     -205.62593779      -0.00101898     0.10D-02     0.11D-02     3     0       0.04      0.20    diag
   5     -205.62609251      -0.00015472     0.38D-03     0.44D-03     4     0       0.03      0.23    diag
   6     -205.62612272      -0.00003021     0.18D-03     0.20D-03     5     0       0.03      0.26    diag
   7     -205.62613582      -0.00001310     0.89D-04     0.14D-03     6     0       0.03      0.29    diag
   8     -205.62613837      -0.00000255     0.41D-04     0.71D-04     7     0       0.03      0.32    fixocc
   9     -205.62613863      -0.00000026     0.11D-04     0.21D-04     8     0       0.03      0.35    diag
  10     -205.62613866      -0.00000003     0.36D-05     0.50D-05     9     0       0.05      0.40    diag/orth
  11     -205.62613868      -0.00000001     0.16D-05     0.31D-05     9     0       0.02      0.42    diag
  12     -205.62613868      -0.00000000     0.66D-06     0.16D-05     9     0       0.02      0.44    diag
  13     -205.62613868      -0.00000000     0.16D-06     0.34D-06     9     0       0.03      0.47    diag
  14     -205.62613868      -0.00000000     0.53D-07     0.63D-07     0     0       0.02      0.49    diag

 Final occupancy:  12   2

 !RHF STATE 1.1 Energy               -205.626138677249
  RHF One-electron energy            -451.092312350929
  RHF Two-electron energy             158.725343622984
  RHF Kinetic energy                  205.112536582980
  RHF Nuclear energy                   86.740830050696
  RHF Virial quotient                  -1.002504001476

 !RHF STATE 1.1 Dipole moment           0.00000000     1.11983340     0.47451813
 Dipole moment /Debye                   0.00000000     2.84633261     1.20610479

 Orbital energies:

           1.1          2.1          3.1          4.1          5.1          6.1          7.1          8.1          9.1         10.1
    -20.626891   -15.617740   -11.426158   -11.313762    -1.426101    -1.262912    -0.965184    -0.780025    -0.693871    -0.604595

          11.1         12.1         13.1         14.1
     -0.516927    -0.505993     0.135662     0.164770

           1.2          2.2          3.2          4.2
     -0.581744    -0.498912     0.037541     0.254298


 HOMO      2.2    -0.498912 =     -13.5761eV
 LUMO      3.2     0.037541 =       1.0215eV
 LUMO-HOMO         0.536453 =      14.5976eV

 Orbitals saved in record  2100.2


 **********************************************************************************************************************************
 DATASETS  * FILE   NREC   LENGTH (MB)   RECORD NAMES
              1      18       28.77       500      610      700      900      950      970     1000      129      960     1100   
                                          VAR    BASINP    GEOM    SYMINP    ZMAT    AOBASIS   BASIS     P2S    ABASIS      S 
                                         1400     1410     1200     1210     1080     1600     1650     1700   
                                           T        V       H0       H01     AOSYM     SMH    MOLCAS    OPER   

              2       4        0.48       700     1000      520     2100   
                                         GEOM     BASIS   MCVARS     RHF  

 PROGRAMS   *        TOTAL    HF-SCF       INT
 CPU TIMES  *         1.04      0.51      0.38
 REAL TIME  *         1.01 SEC
 DISK USED  *        29.56 MB (local),      239.82 MB (total)
 GA USED    *         0.00 MB       (max)       0.00 MB       (current)
 **********************************************************************************************************************************


 PROGRAM * OPT (Geometry optimization)     Authors: F. Eckert and H.-J. Werner


 BFGS update of hessian

 *** Long output written to logfile /home/koe/final_calc_paper/hcocn/hcocn.log ***


 Geometry optimization using default procedure for command HF-SCF

 Geometry written to block  1 of record 700

 Entering BMAT geometry-optimization, modelhes=F
 Optimization method: RF

 ITER.   ENERGY(OLD)    ENERGY(NEW)      DE          GRADMAX     GRADNORM    GRADRMS     STEPMAX     STEPLEN     STEPRMS   CPU-time
   1  -205.62613868  -205.64218602    -0.01604734  0.11827849  0.19871716  0.05130855  0.13986028  0.23990031  0.10728668      3.73
   2  -205.64218602  -205.64271188    -0.00052586  0.01606842  0.02414254  0.00623358  0.04312727  0.07423140  0.03319729      7.76
   3  -205.64271188  -205.64279488    -0.00008300  0.00390537  0.00543697  0.00140382  0.02938661  0.04456348  0.01992940     12.01
   4  -205.64279488  -205.64280499    -0.00001011  0.00131205  0.00202457  0.00052274  0.00803674  0.01353387  0.00605253     16.09
   5  -205.64280499  -205.64280940    -0.00000441  0.00077815  0.00137313  0.00035454  0.00765957  0.01261118  0.00563989     19.95
   6  -205.64280940  -205.64280970    -0.00000030  0.00042961  0.00054891  0.00014173  0.00110803  0.00198239  0.00088655     23.82
   7  -205.64280970  -205.64280971    -0.00000001  0.00011340  0.00014193  0.00003665  0.00015253  0.00023053  0.00010309     27.83
   8  -205.64280971  -205.64280971    -0.00000000  0.00000957  0.00001586  0.00000410  0.00002793  0.00004703  0.00002103     31.45
   9  -205.64280971  -205.64280971    -0.00000000  0.00000190  0.00000251  0.00000065  0.00000248  0.00000469  0.00000210     35.40
  10  -205.64280971  -205.64280971     0.00000000  0.00000039  0.00000071  0.00000018  0.00000360  0.00000606  0.00000271     38.99
  11  -205.64280971  -205.64280971    -0.00000000  0.00000146  0.00000203  0.00000053  0.00000208  0.00000358  0.00000160     42.60
  12  -205.64280971  -205.64280971    -0.00000000  0.00000060  0.00000082  0.00000021  0.00000053  0.00000092  0.00000041     46.04
  13  -205.64280971  -205.64280971     0.00000000  0.00000022  0.00000031  0.00000008  0.00000009  0.00000018  0.00000008     49.69
  14  -205.64280971  -205.64280971    -0.00000000  0.00000008  0.00000013  0.00000003  0.00000006  0.00000010  0.00000005     53.19

 END OF GEOMETRY OPTIMIZATION.

 Geometry written to block  1 of record 700

 Recomputing wavefunction for reoriented structure

 Current geometry (xyz format, in Angstrom)

    5
 HF-SCF000/6-311G(D,P)  ENERGY=-205.64280971
 C          0.0000000000        0.4528810123        0.7051388957
 H          0.0000000000        1.5255646687        0.8835841480
 O          0.0000000000       -0.3501726532        1.5598783996
 C          0.0000000000        0.0786888255       -0.7258367549
 N          0.0000000000       -0.1653466128       -1.8276162653

 **********************************************************************************************************************************


 **********************************************************************************************************************************
 DATASETS  * FILE   NREC   LENGTH (MB)   RECORD NAMES
              1      18       28.77       500      610      700      900      950      970     1000      129      960     1100   
                                          VAR    BASINP    GEOM    SYMINP    ZMAT    AOBASIS   BASIS     P2S    ABASIS      S 
                                         1400     1410     1200     1210     1080     1600     1650     1700   
                                           T        V       H0       H01     AOSYM     SMH    MOLCAS    OPER   

              2       4        0.48       700     1000      520     2100   
                                         GEOM     BASIS   MCVARS     RHF  

 PROGRAMS   *        TOTAL      OPTG    HF-SCF       INT
 CPU TIMES  *        55.01     53.97      0.51      0.38
 REAL TIME  *        32.82 SEC
 DISK USED  *        29.57 MB (local),      240.33 MB (total)
 SF USED    *         0.05 MB
 GA USED    *         0.00 MB       (max)       0.00 MB       (current)
 **********************************************************************************************************************************


 PROGRAM * HESSIAN

 PROGRAM * MCKINLEY (Hessian of the energy)     Author: A. Bernhardsson, R. Lindh

 Orbitals from record         2100.2

 Number of closed-shell orbitals: 14 ( 12  2 )
 Number of occupied orbitals:     14 ( 12  2 )

 Number of electrons= 28     Singlet     Space symmetry=1      Wavefunction type: CLOSED          


 McKinley needed     46.70 seconds of CPU time

 Entering CPHF calculation

 CPHF needed 154 iterations for 15 perturbations.  Total CPU time:   18.84 sec


 HF-SCF hessian saved to record  5300.2

 PROGRAM * FREQUENCIES (Calculation of harmonic vibrational spectra for HF-SCF)


 Permanent Dipole Moment [debye]
 1-3    0.000000    0.000000    0.000000

 Dipole Moment Norm    0.0000000 [debye]

 Dipole Moment Derivatives [debye/ang]
              1             2             3             4             5             6             7             8
    1    0.00000000    0.00000000    0.00000000    0.00000000    0.00000000    0.00000000    0.00000000    0.00000000
    2    0.00000000    0.00000000    0.00000000    0.00000000    0.00000000    0.00000000    0.00000000    0.00000000
    3    0.00000000    0.00000000    0.00000000    0.00000000    0.00000000    0.00000000    0.00000000    0.00000000
              9            10            11            12            13            14            15
    1    0.00000000    0.00000000    0.00000000    0.00000000    0.00000000    0.00000000    0.00000000
    2    0.00000000    0.00000000    0.00000000    0.00000000    0.00000000    0.00000000    0.00000000
    3    0.00000000    0.00000000    0.00000000    0.00000000    0.00000000    0.00000000    0.00000000

 Projecting out rotations and translations

 Force Constants (Second Derivatives of the Energy) in [a.u.]
                             C1X1        C1Y1        C1Z1        H1X2        H1Y2    
           C1X1          0.2121434
           C1Y1          0.0000000   0.9820844
           C1Z1          0.0000000  -0.3002569   0.8415536
           H1X2         -0.0729444   0.0000000   0.0000000   0.0260608
           H1Y2          0.0000000  -0.3195285  -0.0596307   0.0000000   0.3584797
           H1Z2          0.0000000  -0.0646863  -0.0806971   0.0000000   0.0490019
           O1X3         -0.0720703   0.0000000   0.0000000   0.0259229   0.0000000
           O1Y3          0.0000000  -0.5525231   0.4198590   0.0000000  -0.0344908
           O1Z3          0.0000000   0.4528373  -0.5555697   0.0000000   0.0170443
           C2X4         -0.0865896   0.0000000   0.0000000   0.0238529   0.0000000
           C2Y4          0.0000000  -0.1349893  -0.0605326   0.0000000  -0.0041158
           C2Z4          0.0000000  -0.0845054  -0.2174896   0.0000000  -0.0065226
           N1X5          0.0194609   0.0000000   0.0000000  -0.0028922   0.0000000
           N1Y5          0.0000000   0.0249566   0.0005611   0.0000000  -0.0003445
           N1Z5          0.0000000  -0.0033888   0.0122028   0.0000000   0.0001071
                             H1Z2        O1X3        O1Y3        O1Z3        C2X4    
           H1Z2          0.0872944
           O1X3          0.0000000   0.0258155
           O1Y3          0.0483010   0.0000000   0.5625296
           O1Z3          0.0096651   0.0000000  -0.5023412   0.6318934
           C2X4          0.0000000   0.0225131   0.0000000   0.0000000   0.0711368
           C2Y4         -0.0359137   0.0000000   0.0269995   0.0398870   0.0000000
           C2Z4         -0.0117263   0.0000000   0.0340494  -0.0847362   0.0000000
           N1X5          0.0000000  -0.0021812   0.0000000   0.0000000  -0.0309133
           N1Y5          0.0032970   0.0000000  -0.0025151  -0.0074275   0.0000000
           N1Z5         -0.0045362   0.0000000   0.0001317  -0.0012526   0.0000000
                             C2Y4        C2Z4        N1X5        N1Y5        N1Z5    
           C2Y4          0.2247247
           C2Z4          0.3750515   1.7844764
           N1X5          0.0000000   0.0000000   0.0165258
           N1Y5         -0.1126190  -0.3180729   0.0000000   0.0905220
           N1Z5         -0.3184923  -1.4705243   0.0000000   0.3216422   1.4641103


 Atomic Masses
 1-5   12.000000    1.007825   15.994910   12.000000   14.003070

 Mass weighted Second Derivative Matrix
                             C1X1        C1Y1        C1Z1        H1X2        H1Y2    
           C1X1          0.0176786
           C1Y1          0.0000000   0.0818404
           C1Z1          0.0000000  -0.0250214   0.0701295
           H1X2         -0.0209753   0.0000000   0.0000000   0.0258584
           H1Y2          0.0000000  -0.0918812  -0.0171469   0.0000000   0.3556963
           H1Z2          0.0000000  -0.0186007  -0.0232046   0.0000000   0.0486214
           O1X3         -0.0052021   0.0000000   0.0000000   0.0064565   0.0000000
           O1Y3          0.0000000  -0.0398813   0.0303055   0.0000000  -0.0085905
           O1Z3          0.0000000   0.0326859  -0.0401012   0.0000000   0.0042452
           C2X4         -0.0072158   0.0000000   0.0000000   0.0068590   0.0000000
           C2Y4          0.0000000  -0.0112491  -0.0050444   0.0000000  -0.0011835
           C2Z4          0.0000000  -0.0070421  -0.0181241   0.0000000  -0.0018756
           N1X5          0.0015013   0.0000000   0.0000000  -0.0007699   0.0000000
           N1Y5          0.0000000   0.0019252   0.0000433   0.0000000  -0.0000917
           N1Z5          0.0000000  -0.0002614   0.0009414   0.0000000   0.0000285
                             H1Z2        O1X3        O1Y3        O1Z3        C2X4    
           H1Z2          0.0866166
           O1X3          0.0000000   0.0016140
           O1Y3          0.0120302   0.0000000   0.0351693
           O1Z3          0.0024073   0.0000000  -0.0314063   0.0395059
           C2X4          0.0000000   0.0016250   0.0000000   0.0000000   0.0059281
           C2Y4         -0.0103271   0.0000000   0.0019488   0.0028791   0.0000000
           C2Z4         -0.0033719   0.0000000   0.0024577  -0.0061163   0.0000000
           N1X5          0.0000000  -0.0001457   0.0000000   0.0000000  -0.0023848
           N1Y5          0.0008776   0.0000000  -0.0001681  -0.0004963   0.0000000
           N1Z5         -0.0012075   0.0000000   0.0000088  -0.0000837   0.0000000
                             C2Y4        C2Z4        N1X5        N1Y5        N1Z5    
           C2Y4          0.0187271
           C2Z4          0.0312543   0.1487064
           N1X5          0.0000000   0.0000000   0.0011802
           N1Y5         -0.0086878  -0.0245372   0.0000000   0.0064644
           N1Z5         -0.0245695  -0.1134410   0.0000000   0.0229694   0.1045564


 Mass Weighted 2nd Derivative Matrix Eigenvalues
 1-10    0.000000    0.000000    0.000000    0.000000    0.000000    0.000000    0.002807    0.005001    0.017588    0.037389
 11-15    0.047259    0.087798    0.153449    0.255286    0.393094

 Mass Weighted 2nd Derivative Matrix Eigenvectors
              1             2             3             4             5             6             7             8
    1    0.78529991    0.01328678    0.00730162    0.00283391   -0.03825642   -0.02853895    0.00000000   -0.08659296
    2    0.01500152    0.14715153    0.23769878   -0.02433074    0.07795273    0.43520556    0.26362375    0.00000000
    3   -0.01258276   -0.21485127    0.22065015    0.30966047   -0.21170043   -0.07527836    0.08961454    0.00000000
    4    0.53034719   -0.11938530   -0.09288140   -0.08815375   -0.17115386    0.09854325    0.00000000   -0.33758831
    5    0.00450764    0.05390094    0.06216923   -0.00130402    0.02158829    0.13596763    0.04775157    0.00000000
    6   -0.00460932   -0.12992779    0.10431932    0.05519304   -0.05532440   -0.08099098    0.18659727    0.00000000
    7    0.14587728    0.25087455    0.22479763    0.43901762    0.72633009   -0.31818725    0.00000000   -0.10340193
    8    0.02037585    0.38467894    0.14626316    0.08157639    0.07086605    0.69029716   -0.27333546    0.00000000
    9   -0.01165548   -0.04624768    0.13433028    0.46054337   -0.26238652    0.08957594   -0.43117288    0.00000000
   10    0.25026759    0.31997592    0.20196712   -0.09444771   -0.19717677   -0.19708892    0.00000000    0.80684264
   11    0.01056953   -0.16431566    0.42354961   -0.18335844    0.10569561    0.16281137    0.55602927    0.00000000
   12   -0.01142381   -0.13340433    0.17205119    0.35124533   -0.21895504   -0.00404879    0.04096057    0.00000000
   13   -0.12927147    0.58277683    0.36599842   -0.19774813   -0.37172714   -0.33696449    0.00000000   -0.46567026
   14    0.00773142   -0.43655791    0.61211413   -0.33033990    0.13725146   -0.05068334   -0.47944924    0.00000000
   15   -0.01152401   -0.08672982    0.15161907    0.40872632   -0.24163525    0.04580735    0.28988407    0.00000000
              9            10            11            12            13            14            15
    1    0.00000000    0.00000000   -0.61097447    0.00000000    0.00000000    0.00000000    0.00000000
    2   -0.20629151    0.52346290    0.00000000   -0.14605114   -0.48420076   -0.02684756   -0.28806076
    3    0.22021729    0.55530013    0.00000000   -0.23268761    0.57709928   -0.07171170   -0.03750040
    4    0.00000000    0.00000000    0.73151260    0.00000000    0.00000000    0.00000000    0.00000000
    5   -0.06537947    0.13578295    0.00000000   -0.21996938   -0.11956977   -0.01356754    0.94148562
    6    0.09146333    0.26479632    0.00000000    0.89891399   -0.09558493   -0.01265111    0.17001276
    7    0.00000000    0.00000000    0.18171638    0.00000000    0.00000000    0.00000000    0.00000000
    8    0.00300012   -0.13975214    0.00000000    0.24174465    0.43488423    0.00633862    0.01304820
    9    0.52512860   -0.08928872    0.00000000   -0.04411015   -0.46785337   -0.01055528   -0.01111200
   10    0.00000000    0.00000000    0.23780812    0.00000000    0.00000000    0.00000000    0.00000000
   11    0.47495874   -0.38720548    0.00000000   -0.08510918    0.02765939    0.17175620    0.00192537
   12   -0.44146072   -0.13439715    0.00000000    0.01177909    0.00487807    0.75255492    0.00328874
   13    0.00000000    0.00000000   -0.04501062    0.00000000    0.00000000    0.00000000    0.00000000
   14   -0.23437695   -0.01320208    0.00000000    0.01463532   -0.01007941   -0.13727924   -0.00164200
   15   -0.38096347   -0.36524806    0.00000000    0.01048565   -0.01308226   -0.61559422   -0.00206385

   Low Vibration      Wavenumber
        Nr             [1/cm] 
        1                0.00
        2                0.00
        3                0.00
        4                0.00
        5                0.00
        6                0.00

     Vibration        Wavenumber
        Nr             [1/cm] 
        1              272.36
        2              363.52
        3              681.73
        4              993.98
        5             1117.49
        6             1523.17
        7             2013.66
        8             2597.28
        9             3222.94

 FREQUENCIES * CALCULATION OF NORMAL MODES FOR HF-SCF


 Atomic Coordinates

  Nr  Atom  Charge       X              Y              Z

   1   C1    6.00    0.000000000    0.855821080    1.332519393
   2   H1    1.00    0.000000000    2.882899409    1.669732048
   3   O1    8.00    0.000000000   -0.661730411    2.947742963
   4   C2    6.00    0.000000000    0.148700329   -1.371632678
   5   N1    7.00    0.000000000   -0.312459814   -3.453694202

 Gradient norm at reference geometry: 0.13172D-06

 Normal Modes

                              1 A`        2 A``       3 A`        4 A`        5 A``
 Wavenumbers [cm-1]          272.36      363.52      681.73      993.98     1117.49
 Intensities [km/mol]          0.00        0.00        0.00        0.00        0.00
 Intensities [relative]        0.00        0.00        0.00        0.00        0.00
           C1X1            -0.00000    -0.02500    -0.00000     0.00000    -0.17637
           C1Y1             0.07610     0.00000    -0.05955     0.15111     0.00000
           C1Z1             0.02587    -0.00000     0.06357     0.16030     0.00000
           H1X2            -0.00000    -0.33628    -0.00000     0.00000     0.72867
           H1Y2             0.04757     0.00000    -0.06513     0.13525     0.00000
           H1Z2             0.18587    -0.00000     0.09111     0.26377     0.00000
           O1X3             0.00000    -0.02585    -0.00000    -0.00000     0.04544
           O1Y3            -0.06834     0.00000     0.00075    -0.03494     0.00000
           O1Z3            -0.10781    -0.00000     0.13130    -0.02233    -0.00000
           C2X4             0.00000     0.23292    -0.00000     0.00000     0.06865
           C2Y4             0.16051     0.00000     0.13711    -0.11178    -0.00000
           C2Z4             0.01182    -0.00000    -0.12744    -0.03880    -0.00000
           N1X5             0.00000    -0.12444     0.00000     0.00000    -0.01203
           N1Y5            -0.12812    -0.00000    -0.06263    -0.00353    -0.00000
           N1Z5             0.07747    -0.00000    -0.10181    -0.09761    -0.00000

                              6 A`        7 A`        8 A`        9 A` 
 Wavenumbers [cm-1]         1523.17     2013.66     2597.28     3222.94
 Intensities [km/mol]          0.00        0.00        0.00        0.00
 Intensities [relative]        0.00        0.00        0.00        0.00
           C1X1            -0.00000     0.00000    -0.00000     0.00000
           C1Y1            -0.04216    -0.13978    -0.00775    -0.08316
           C1Z1            -0.06717     0.16659    -0.02070    -0.01083
           H1X2            -0.00000    -0.00000    -0.00000    -0.00000
           H1Y2            -0.21911    -0.11910    -0.01351     0.93782
           H1Z2             0.89542    -0.09521    -0.01260     0.16935
           O1X3            -0.00000     0.00000     0.00000     0.00000
           O1Y3             0.06045     0.10874     0.00158     0.00326
           O1Z3            -0.01103    -0.11698    -0.00264    -0.00278
           C2X4             0.00000    -0.00000     0.00000    -0.00000
           C2Y4            -0.02457     0.00798     0.04958     0.00056
           C2Z4             0.00340     0.00141     0.21724     0.00095
           N1X5             0.00000     0.00000     0.00000     0.00000
           N1Y5             0.00391    -0.00269    -0.03669    -0.00044
           N1Z5             0.00280    -0.00350    -0.16451    -0.00055


 Normal Modes of low/zero frequencies

                                  1           2           3           4           5
 Wavenumbers [cm-1]            0.00        0.00        0.00        0.00        0.00
 Intensities [km/mol]          0.00        0.00        0.00        0.00        0.00
 Intensities [relative]        0.00        0.00        0.00        0.00        0.00
           C1X1             0.22670     0.00384     0.00211     0.00082    -0.01104
           C1Y1             0.00433     0.04248     0.06862    -0.00702     0.02250
           C1Z1            -0.00363    -0.06202     0.06370     0.08939    -0.06111
           H1X2             0.52828    -0.11892    -0.09252    -0.08781    -0.17049
           H1Y2             0.00449     0.05369     0.06193    -0.00130     0.02150
           H1Z2            -0.00459    -0.12942     0.10391     0.05498    -0.05511
           O1X3             0.03648     0.06273     0.05621     0.10977     0.18161
           O1Y3             0.00509     0.09619     0.03657     0.02040     0.01772
           O1Z3            -0.00291    -0.01156     0.03359     0.11515    -0.06561
           C2X4             0.07225     0.09237     0.05830    -0.02726    -0.05692
           C2Y4             0.00305    -0.04743     0.12227    -0.05293     0.03051
           C2Z4            -0.00330    -0.03851     0.04967     0.10140    -0.06321
           N1X5            -0.03455     0.15574     0.09781    -0.05284    -0.09934
           N1Y5             0.00207    -0.11666     0.16358    -0.08828     0.03668
           N1Z5            -0.00308    -0.02318     0.04052     0.10922    -0.06457

                                  6
 Wavenumbers [cm-1]            0.00
 Intensities [km/mol]          0.00
 Intensities [relative]        0.00
           C1X1            -0.00824
           C1Y1             0.12563
           C1Z1            -0.02173
           H1X2             0.09816
           H1Y2             0.13544
           H1Z2            -0.08068
           O1X3            -0.07956
           O1Y3             0.17260
           O1Z3             0.02240
           C2X4            -0.05689
           C2Y4             0.04700
           C2Z4            -0.00117
           N1X5            -0.09005
           N1Y5            -0.01354
           N1Z5             0.01224


 Frequencies dumped to record   5400.2

 Zero point energy:  0.02912893 [H]     6393.06 [1/CM]       76.48 [KJ/MOL]
 Frequency information read from record  5400.2


 **********************************************************************************************************************************
 DATASETS  * FILE   NREC   LENGTH (MB)   RECORD NAMES
              1      18       28.77       500      610      700      900      950      970     1000      129      960     1100   
                                          VAR    BASINP    GEOM    SYMINP    ZMAT    AOBASIS   BASIS     P2S    ABASIS      S 
                                         1400     1410     1200     1210     1080     1600     1650     1700   
                                           T        V       H0       H01     AOSYM     SMH    MOLCAS    OPER   

              2       7        0.53       700     1000      520     2100     5300     5450     5400   
                                         GEOM     BASIS   MCVARS     RHF     HESS     NMOD     FREQ   

              4       5        0.69      4100     4000     4200     4300     4400   

 PROGRAMS   *        TOTAL      FREQ      OPTG    HF-SCF       INT
 CPU TIMES  *       120.57     65.56     53.97      0.51      0.38
 REAL TIME  *        66.22 SEC
 DISK USED  *        29.57 MB (local),      240.33 MB (total)
 SF USED    *         0.69 MB
 GA USED    *         0.00 MB       (max)       0.00 MB       (current)
 **********************************************************************************************************************************

 Dump information in style MOLDEN to hcocn.molden                                                                    

 Molecular orbitals read from record     2100.2  Type=RHF/CANONICAL  
 Occupation numbers read from record     2100.2  Type=RHF/RHF  
 Orbital energies read from record       2100.2  Type=RHF/CANONICAL  
 Redundancy group numbers read from rec  2100.2  Type=RHF/RHF  

 DUMP ORBITAL  1.1 AS ORBITAL    1  occ=    2.0000  eig=  -20.6199  GROUP=   2
 DUMP ORBITAL  2.1 AS ORBITAL    2  occ=    2.0000  eig=  -15.6094  GROUP=   2
 DUMP ORBITAL  3.1 AS ORBITAL    3  occ=    2.0000  eig=  -11.4051  GROUP=   2
 DUMP ORBITAL  4.1 AS ORBITAL    4  occ=    2.0000  eig=  -11.2971  GROUP=   2
 DUMP ORBITAL  5.1 AS ORBITAL    5  occ=    2.0000  eig=   -1.4803  GROUP=   2
 DUMP ORBITAL  6.1 AS ORBITAL    6  occ=    2.0000  eig=   -1.2704  GROUP=   2
 DUMP ORBITAL  7.1 AS ORBITAL    7  occ=    2.0000  eig=   -0.9718  GROUP=   2
 DUMP ORBITAL  8.1 AS ORBITAL    8  occ=    2.0000  eig=   -0.7863  GROUP=   2
 DUMP ORBITAL  9.1 AS ORBITAL    9  occ=    2.0000  eig=   -0.7183  GROUP=   2
 DUMP ORBITAL  1.2 AS ORBITAL   10  occ=    2.0000  eig=   -0.6145  GROUP=   2
 DUMP ORBITAL 10.1 AS ORBITAL   11  occ=    2.0000  eig=   -0.6036  GROUP=   2
 DUMP ORBITAL 11.1 AS ORBITAL   12  occ=    2.0000  eig=   -0.5177  GROUP=   2
 DUMP ORBITAL  2.2 AS ORBITAL   13  occ=    2.0000  eig=   -0.5071  GROUP=   2
 DUMP ORBITAL 12.1 AS ORBITAL   14  occ=    2.0000  eig=   -0.5016  GROUP=   2

 Total charge:      28.000000
 Frequency information read from record  5400.2

 **********************************************************************************************************************************

 HF/6-311G(D,P) energy=   -205.642809710141

    OPTG(HF-SCF)          HF-SCF
   -205.64280971   -205.62613868
 **********************************************************************************************************************************
 Molpro calculation terminated
