
 Working directory              : /scratch/koe/tmpdir_768886/molpro.ZYqE4cFI9E/
 Global scratch directory       : /scratch/koe/tmpdir_768886/molpro.ZYqE4cFI9E/
 Wavefunction directory         : /home/koe/final_calc_paper/hcooh/
 Main file repository           : /home/koe/final_calc_paper/hcooh/

 id        : liedlgroup

 Nodes     nprocs
 rune03      10
 GA implementation: MPI file
 GA implementation (serial work in mppx): MPI file

 Using customized tuning parameters: mindgm=1; mindgv=20; mindgc=4; mindgr=1; noblas=0; minvec=7
 default implementation of scratch files=sf  


 Variables initialized (1015), CPU time= 0.01 sec
 ***,hcooh
 memory,300, m
 gthresh,optgrad=1.d-7,twoint=1.d-14,prefac=1.d-16
 orient,mass
 geometry={
 O1
 C,O1,B1
 O2,C,B2,O1,A1
 H1,O2,B3,C,A2,O1,0.0
 H2,C,B4,O1,A3,H1,180
 }
  B1=                  1.20219404 ANG
  B2=                  1.34713670 ANG
  A1=                125.03508568 DEGREE
  B3=                  0.96859307 ANG
  A2=                106.13706564 DEGREE
  B4=                  1.09435427 ANG
  A3=                125.21521371 DEGREE
 
 mass,iso
 basis=6-311g(d,p)
 
 {hf
 start,atden}
 
 
 optg
 {frequencies, symm=auto, print=0,analytical}
 put,molden,hcooh.molden
 Commands initialized (818), CPU time= 0.02 sec, 672 directives.
 Default parameters read. Elapsed time= 0.28 sec

 Checking input...
 Passed
1


                                         ***  PROGRAM SYSTEM MOLPRO  ***
                                       Copyright, TTI GmbH Stuttgart, 2015
                                    Version 2022.1 linked Jan 25 2022 12:44:58


 **********************************************************************************************************************************
 LABEL *   hcooh                                                                         
  64 bit mpp version                                                                     DATE: 25-Aug-23          TIME: 15:48:20  
 **********************************************************************************************************************************

 SHA1:             f3d4322b9bdbeed63a35be676bd653804e8a9433
 **********************************************************************************************************************************

 Memory per process:       300 MW
 Total memory per node:   3000 MW

 GA preallocation disabled
 GA check disabled

 Variable memory set to 300.0 MW


 THRESHOLDS:

 ZERO    =  1.00D-12  ONEINT  =  1.00D-12  TWOINT  =  1.00D-14  PREFAC  =  1.00D-16  XXXXXX  =  1.00D-09  EORDER  =  1.00D-04
 ENERGY  =  0.00D+00  ETEST   =  0.00D+00  EDENS   =  0.00D+00  THRDEDEF=  1.00D-06  GRADIENT=  1.00D-05  STEP    =  1.00D-03
 ORBITAL =  1.00D-05  CIVEC   =  1.00D-05  COEFF   =  1.00D-04  PRINTCI =  5.00D-02  PUNCHCI =  9.90D+01  OPTGRAD =  1.00D-07
 OPTENERG=  1.00D-06  OPTSTEP =  3.00D-04  THRGRAD =  1.00D-10  COMPRESS=  1.00D-11  VARMIN  =  1.00D-07  VARMAX  =  1.00D-03
 THRDOUB =  0.00D+00  THRDIV  =  1.00D-05  THRRED  =  1.00D-07  THRPSP  =  1.00D+00  THRDC   =  1.00D-10  THRCS   =  1.00D-10
 THRNRM  =  1.00D-08  THREQ   =  0.00D+00  THRDE   =  1.00D+00  THRREF  =  1.00D-05  SPARFAC =  1.00D+00  THRDLP  =  1.00D-07
 THRDIA  =  1.00D-10  THRDLS  =  1.00D-07  THRGPS  =  0.00D+00  THRKEX  =  0.00D+00  THRDIS  =  2.00D-01  THRVAR  =  1.00D-10
 THRLOC  =  1.00D-06  THRGAP  =  1.00D-06  THRLOCT = -1.00D+00  THRGAPT = -1.00D+00  THRORB  =  1.00D-06  THRMLTP =  0.00D+00
 THRCPQCI=  1.00D-10  KEXTA   =  0.00D+00  THRCOARS=  0.00D+00  SYMTOL  =  1.00D-06  GRADTOL =  1.00D-06  THROVL  =  1.00D-08
 THRORTH =  1.00D-08  THRDLOVL= -1.00D+00  GRID    =  1.00D-06  GRIDMAX =  1.00D-03  DTMAX   =  0.00D+00  THROCCDE=  1.00D-01
 THROCCDE=  1.00D-01  THRPRINT=  2.50D-01

 ZCENTRE=MASS

 SETTING B1             =         1.20219404  ANG                             
 SETTING B2             =         1.34713670  ANG                             
 SETTING A1             =       125.03508568  DEGREE                          
 SETTING B3             =         0.96859307  ANG                             
 SETTING A2             =       106.13706564  DEGREE                          
 SETTING B4             =         1.09435427  ANG                             
 SETTING A3             =       125.21521371  DEGREE                          


 Using masses of most abundant isotopes

 **********************************************************************************************************************************
 SETTING BASIS          =    6-311G(D,P)


 Recomputing integrals since basis changed


 Using spherical harmonics

 Library entry O      S 6-311G               selected for orbital group  1
 Library entry O      P 6-311G               selected for orbital group  1
 Library entry O      D 6-311G*              selected for orbital group  1
 Library entry C      S 6-311G               selected for orbital group  2
 Library entry C      P 6-311G               selected for orbital group  2
 Library entry C      D 6-311G*              selected for orbital group  2
 Library entry H      S 6-311G               selected for orbital group  4
 Library entry H      P 6-311G**             selected for orbital group  4


 PROGRAM * SEWARD (Integral evaluation for generally contracted gaussian basis sets)     Author: Roland Lindh, 1990

 Geometry written to block  1 of record 700

 Orientation using atomic masses  
 Molecule type: Asymmetric top
 Symmetry elements: X
 Rotational constants:      10.4141342     12.0242328     77.7728586 GHz

 Point group  Cs  



 ATOMIC COORDINATES

 NR  ATOM    CHARGE       X              Y              Z

   1  O1      8.00    0.000000000    0.406089298   -2.124265627
   2  C       6.00    0.000000000   -0.781807475   -0.187759511
   3  O2      8.00    0.000000000    0.230810393    2.147897227
   4  H1      1.00    0.000000000    2.046341884    1.915259421
   5  H2      1.00    0.000000000   -2.845551613   -0.054689571

 Bond lengths in Bohr (Angstrom)

 1-2  2.271817484  2-3  2.545719415  2-5  2.068029854  3-4  1.830375629
     ( 1.202194040)     ( 1.347136700)     ( 1.094354270)     ( 0.968593070)

 Bond angles

  1-2-3  125.03508568   1-2-5  125.21521371   2-3-4  106.13706564   3-2-5  109.74970061

 NUCLEAR CHARGE:                   24
 NUMBER OF PRIMITIVE AOS:         112
 NUMBER OF SYMMETRY AOS:          109
 NUMBER OF CONTRACTIONS:           66   (   49A'  +   17A"  )
 NUMBER OF INNER CORE ORBITALS:     0   (    0A'  +    0A"  )
 NUMBER OF OUTER CORE ORBITALS:     3   (    3A'  +    0A"  )
 NUMBER OF VALENCE ORBITALS:       14   (   11A'  +    3A"  )


 NUCLEAR REPULSION ENERGY   70.14069903


 Eigenvalues of metric

         1 0.938E-02 0.148E-01 0.201E-01 0.319E-01 0.391E-01 0.585E-01 0.785E-01 0.926E-01
         2 0.123E+00 0.203E+00 0.212E+00 0.361E+00 0.427E+00 0.503E+00 0.644E+00 0.865E+00


 Contracted 2-electron integrals neglected if value below      1.0D-14
 AO integral compression algorithm  1   Integral accuracy      1.0D-14

     11.796 MB (compressed) written to integral file ( 96.9%)

     Node minimum: 1.049 MB, node maximum: 1.311 MB


 NUMBER OF SORTED TWO-ELECTRON INTEGRALS:     131355.     BUFFER LENGTH:  32768
 NUMBER OF SEGMENTS:   1  SEGMENT LENGTH:     131355      RECORD LENGTH: 524288

 Memory used in sort:       0.69 MW

 SORT1 READ     1618134. AND WROTE      127436. INTEGRALS IN      1 RECORDS. CPU TIME:     0.05 SEC, REAL TIME:     0.06 SEC
 SORT2 READ     1281165. AND WROTE     1324981. INTEGRALS IN     40 RECORDS. CPU TIME:     0.00 SEC, REAL TIME:     0.01 SEC

 Node minimum:      130807.  Node maximum:      135447. integrals

 OPERATOR DM      FOR CENTER  0  COORDINATES:    0.000000    0.000000    0.000000


 **********************************************************************************************************************************
 DATASETS  * FILE   NREC   LENGTH (MB)   RECORD NAMES
              1      18       28.71       500      610      700      900      950      970     1000      129      960     1100   
                                          VAR    BASINP    GEOM    SYMINP    ZMAT    AOBASIS   BASIS     P2S    ABASIS      S 
                                         1400     1410     1200     1210     1080     1600     1650     1700   
                                           T        V       H0       H01     AOSYM     SMH    MOLCAS    OPER   

 PROGRAMS   *        TOTAL       INT
 CPU TIMES  *         0.55      0.33
 REAL TIME  *         0.98 SEC
 DISK USED  *        29.02 MB (local),      339.29 MB (total)
 GA USED    *         0.00 MB       (max)       0.00 MB       (current)
 **********************************************************************************************************************************


 Program * Restricted Hartree-Fock

 Orbital guess generated from atomic densities. Full valence occupancy:   14   3

 Initial occupancy:  10   2

 NELEC=   24   SYM=1   MS2= 0   THRE=1.0D-08   THRD=1.0D-06   THRG=1.0D-06  HFMA2=F  DIIS_START=2   DIIS_MAX=10   DIIS_INCORE=F

 Level shifts:    0.00 (CLOSED)    0.00 (OPEN)    0.30 (GAP_MIN)

 ITER           ETOT              DE          GRAD        DDIFF     DIIS  NEXP   TIME(IT)  TIME(TOT)  DIAG
   1     -188.73521555    -188.73521555     0.00D+00     0.80D-01     0     0       0.00      0.02    start
   2     -188.78231733      -0.04710178     0.15D-01     0.13D-01     1     0       0.01      0.03    diag
   3     -188.81656049      -0.03424317     0.11D-01     0.52D-02     2     0       0.00      0.03    diag
   4     -188.81748299      -0.00092249     0.13D-02     0.95D-03     3     0       0.00      0.03    diag
   5     -188.81768356      -0.00020058     0.62D-03     0.48D-03     4     0       0.00      0.03    diag
   6     -188.81772315      -0.00003959     0.19D-03     0.22D-03     5     0       0.01      0.04    diag
   7     -188.81773163      -0.00000848     0.79D-04     0.13D-03     6     0       0.00      0.04    diag
   8     -188.81773234      -0.00000070     0.26D-04     0.37D-04     7     0       0.00      0.04    fixocc
   9     -188.81773240      -0.00000006     0.79D-05     0.11D-04     8     0       0.00      0.04    diag
  10     -188.81773240      -0.00000001     0.20D-05     0.30D-05     9     0       0.01      0.05    diag/orth
  11     -188.81773240      -0.00000000     0.43D-06     0.54D-06     9     0       0.00      0.05    diag
  12     -188.81773240      -0.00000000     0.75D-07     0.76D-07     0     0       0.00      0.05    diag

 Final occupancy:  10   2

 !RHF STATE 1.1 Energy               -188.817732404329
  RHF One-electron energy            -398.013418368404
  RHF Two-electron energy             139.054986935586
  RHF Kinetic energy                  188.638426135297
  RHF Nuclear energy                   70.140699028489
  RHF Virial quotient                  -1.000950528865

 !RHF STATE 1.1 Dipole moment           0.00000000    -0.13629727     0.61279063
 Dipole moment /Debye                   0.00000000    -0.34643310     1.55755842

 Orbital energies:

           1.1          2.1          3.1          4.1          5.1          6.1          7.1          8.1          9.1         10.1
    -20.619820   -20.560239   -11.395929    -1.474726    -1.375054    -0.893350    -0.721902    -0.710414    -0.602725    -0.470839

          11.1         12.1
      0.156503     0.177046

           1.2          2.2          3.2          4.2
     -0.633774    -0.492951     0.167054     0.556988


 HOMO     10.1    -0.470839 =     -12.8122eV
 LUMO     11.1     0.156503 =       4.2587eV
 LUMO-HOMO         0.627342 =      17.0709eV

 Orbitals saved in record  2100.2


 **********************************************************************************************************************************
 DATASETS  * FILE   NREC   LENGTH (MB)   RECORD NAMES
              1      18       28.71       500      610      700      900      950      970     1000      129      960     1100   
                                          VAR    BASINP    GEOM    SYMINP    ZMAT    AOBASIS   BASIS     P2S    ABASIS      S 
                                         1400     1410     1200     1210     1080     1600     1650     1700   
                                           T        V       H0       H01     AOSYM     SMH    MOLCAS    OPER   

              2       4        0.44       700     1000      520     2100   
                                         GEOM     BASIS   MCVARS     RHF  

 PROGRAMS   *        TOTAL    HF-SCF       INT
 CPU TIMES  *         0.60      0.05      0.33
 REAL TIME  *         1.08 SEC
 DISK USED  *        29.39 MB (local),      342.96 MB (total)
 GA USED    *         0.00 MB       (max)       0.00 MB       (current)
 **********************************************************************************************************************************


 PROGRAM * OPT (Geometry optimization)     Authors: F. Eckert and H.-J. Werner


 BFGS update of hessian

 *** Long output written to logfile /home/koe/final_calc_paper/hcooh/hcooh.log ***


 Geometry optimization using default procedure for command HF-SCF

 Geometry written to block  1 of record 700

 Making model hessian for Z-matrix coordinates

 Entering Rational Function Geometry Optimization

 ITER.   ENERGY(OLD)    ENERGY(NEW)      DE          GRADMAX     GRADNORM    GRADRMS     STEPMAX     STEPLEN     STEPRMS   CPU-time
   1  -188.81773240  -188.82039563    -0.00266323  0.05465565  0.06605779  0.02496750  0.04884104  0.07459928  0.01065704      0.49
   2  -188.82039563  -188.82050879    -0.00011316  0.00751226  0.01039474  0.00392884  0.01181644  0.02011048  0.00287293      0.93
   3  -188.82050879  -188.82052321    -0.00001442  0.00248565  0.00355973  0.00134545  0.00628081  0.00825512  0.00117930      1.34
   4  -188.82052321  -188.82052485    -0.00000164  0.00080808  0.00120669  0.00045608  0.00239108  0.00320482  0.00045783      1.78
   5  -188.82052485  -188.82052489    -0.00000004  0.00014856  0.00019251  0.00007276  0.00027471  0.00040979  0.00005854      2.19
   6  -188.82052489  -188.82052489    -0.00000000  0.00002125  0.00003510  0.00001327  0.00005730  0.00007671  0.00001096      2.61
   7  -188.82052489  -188.82052489    -0.00000000  0.00000306  0.00000507  0.00000192  0.00000626  0.00001023  0.00000146      3.01
   8  -188.82052489  -188.82052489     0.00000000  0.00000069  0.00000076  0.00000029  0.00000104  0.00000130  0.00000019      3.42
   9  -188.82052489  -188.82052489    -0.00000000  0.00000011  0.00000014  0.00000005  0.00000018  0.00000022  0.00000003      3.81
  10  -188.82052489  -188.82052489     0.00000000  0.00000007  0.00000009  0.00000003  0.00000008  0.00000011  0.00000002      4.20

 END OF GEOMETRY OPTIMIZATION.

 Optimized variables
 B1=                  1.17571976 ANG
 B2=                  1.32124343 ANG
 A1=                124.92185888 DEGREE
 B3=                  0.94688664 ANG
 A2=                108.94274463 DEGREE
 B4=                  1.08577672 ANG
 A3=                124.76668350 DEGREE

 **********************************************************************************************************************************

 Geometry written to block  1 of record 700

 Recomputing wavefunction for reoriented structure

 Current geometry (xyz format, in Angstrom)

    5
 HF-SCF000/6-311G(D,P)  ENERGY=-188.82052489
 O          0.0000000000        0.2136286551       -1.1001665457
 C          0.0000000000       -0.4053646984       -0.1005845463
 O          0.0000000000        0.1174629581        1.1128137594
 H          0.0000000000        1.0616000122        1.0407060096
 H          0.0000000000       -1.4896546597       -0.0437834177

 **********************************************************************************************************************************


 **********************************************************************************************************************************
 DATASETS  * FILE   NREC   LENGTH (MB)   RECORD NAMES
              1      18       28.71       500      610      700      900      950      970     1000      129      960     1100   
                                          VAR    BASINP    GEOM    SYMINP    ZMAT    AOBASIS   BASIS     P2S    ABASIS      S 
                                         1400     1410     1200     1210     1080     1600     1650     1700   
                                           T        V       H0       H01     AOSYM     SMH    MOLCAS    OPER   

              2       4        0.44       700     1000      520     2100   
                                         GEOM     BASIS   MCVARS     RHF  

 PROGRAMS   *        TOTAL      OPTG    HF-SCF       INT
 CPU TIMES  *         4.81      4.21      0.05      0.33
 REAL TIME  *         6.31 SEC
 DISK USED  *        29.39 MB (local),      343.04 MB (total)
 SF USED    *         0.01 MB
 GA USED    *         0.00 MB       (max)       0.00 MB       (current)
 **********************************************************************************************************************************


 PROGRAM * HESSIAN

 PROGRAM * MCKINLEY (Hessian of the energy)     Author: A. Bernhardsson, R. Lindh

 Orbitals from record         2100.2

 Number of closed-shell orbitals: 12 ( 10  2 )
 Number of occupied orbitals:     12 ( 10  2 )

 Number of electrons= 24     Singlet     Space symmetry=1      Wavefunction type: CLOSED          


 McKinley needed      0.75 seconds of CPU time

 Entering CPHF calculation

 CPHF needed 135 iterations for 15 perturbations.  Total CPU time:    0.20 sec


 HF-SCF hessian saved to record  5300.2

 PROGRAM * FREQUENCIES (Calculation of harmonic vibrational spectra for HF-SCF)


 Permanent Dipole Moment [debye]
   1-  3    0.000000    0.000000    0.000000

 Dipole Moment Norm    0.0000000 [debye]

 Dipole Moment Derivatives [debye/ang]
              1             2             3             4             5             6             7             8
    1     0.0000000     0.0000000     0.0000000     0.0000000     0.0000000     0.0000000     0.0000000     0.0000000
    2     0.0000000     0.0000000     0.0000000     0.0000000     0.0000000     0.0000000     0.0000000     0.0000000
    3     0.0000000     0.0000000     0.0000000     0.0000000     0.0000000     0.0000000     0.0000000     0.0000000
              9            10            11            12            13            14            15
    1     0.0000000     0.0000000     0.0000000     0.0000000     0.0000000     0.0000000     0.0000000
    2     0.0000000     0.0000000     0.0000000     0.0000000     0.0000000     0.0000000     0.0000000
    3     0.0000000     0.0000000     0.0000000     0.0000000     0.0000000     0.0000000     0.0000000

 Projecting out rotations and translations

 Force Constants (Second Derivatives of the Energy) in [a.u.]
                             O1X1        O1Y1        O1Z1        CX2         CY2     
           O1X1          0.0363255
           O1Y1          0.0000000   0.3665947
           O1Z1          0.0000000  -0.4238413   0.8187131
           CX2          -0.0927777   0.0000000   0.0000000   0.2478780
           CY2           0.0000000  -0.4033806   0.3825111   0.0000000   0.9827779
           CZ2           0.0000000   0.3669803  -0.6862974   0.0000000  -0.2532294
           O2X3          0.0351519   0.0000000   0.0000000  -0.0778415   0.0000000
           O2Y3          0.0000000   0.0521424   0.0145379   0.0000000  -0.2137843
           O2Z3          0.0000000   0.0006676  -0.1285770   0.0000000  -0.0764814
           H1X4         -0.0069644   0.0000000   0.0000000   0.0056268   0.0000000
           H1Y4          0.0000000   0.0033061   0.0088358   0.0000000  -0.0304405
           H1Z4          0.0000000   0.0088102   0.0034069   0.0000000  -0.0642858
           H2X5          0.0282647   0.0000000   0.0000000  -0.0828857   0.0000000
           H2Y5          0.0000000  -0.0186626   0.0179564   0.0000000  -0.3351726
           H2Z5          0.0000000   0.0473831  -0.0072456   0.0000000   0.0114854
                             CZ2         O2X3        O2Y3        O2Z3        H1X4    
           CZ2           1.0528760
           O2X3          0.0000000   0.0470714
           O2Y3         -0.1076226   0.0000000   0.7623139
           O2Z3         -0.3123449   0.0000000   0.0518427   0.5146768
           H1X4          0.0000000  -0.0200373   0.0000000   0.0000000   0.0148803
           H1Y4         -0.0082486   0.0000000  -0.5791129   0.0298963   0.0000000
           H1Z4          0.0088590   0.0000000   0.0859670  -0.0679856   0.0000000
           H2X5          0.0000000   0.0156555   0.0000000   0.0000000   0.0064945
           H2Y5          0.0021202   0.0000000  -0.0215591  -0.0059252   0.0000000
           H2Z5         -0.0630926   0.0000000  -0.0447250  -0.0057694   0.0000000
                             H1Y4        H1Z4        H2X5        H2Y5        H2Z5    
           H1Y4          0.6049176
           H1Z4         -0.0273159   0.0619311
           H2X5          0.0000000   0.0000000   0.0324710
           H2Y5          0.0013297  -0.0031754   0.0000000   0.3740646
           H2Z5         -0.0031675  -0.0062114   0.0000000  -0.0109760   0.0823191


 Atomic Masses
   1-  5   15.994910   12.000000   15.994910    1.007825    1.007825

 Mass weighted Second Derivative Matrix
                             O1X1        O1Y1        O1Z1        CX2         CY2     
           O1X1          0.0022711
           O1Y1          0.0000000   0.0229195
           O1Z1          0.0000000  -0.0264985   0.0511859
           CX2          -0.0066967   0.0000000   0.0000000   0.0206565
           CY2           0.0000000  -0.0291161   0.0276098   0.0000000   0.0818982
           CZ2           0.0000000   0.0264887  -0.0495371   0.0000000  -0.0211024
           O2X3          0.0021977   0.0000000   0.0000000  -0.0056186   0.0000000
           O2Y3          0.0000000   0.0032599   0.0009089   0.0000000  -0.0154310
           O2Z3          0.0000000   0.0000417  -0.0080386   0.0000000  -0.0055204
           H1X4         -0.0017346   0.0000000   0.0000000   0.0016180   0.0000000
           H1Y4          0.0000000   0.0008234   0.0022007   0.0000000  -0.0087532
           H1Z4          0.0000000   0.0021943   0.0008486   0.0000000  -0.0184855
           H2X5          0.0070398   0.0000000   0.0000000  -0.0238340   0.0000000
           H2Y5          0.0000000  -0.0046483   0.0044724   0.0000000  -0.0963796
           H2Z5          0.0000000   0.0118016  -0.0018046   0.0000000   0.0033026
                             CZ2         O2X3        O2Y3        O2Z3        H1X4    
           CZ2           0.0877397
           O2X3          0.0000000   0.0029429
           O2Y3         -0.0077682   0.0000000   0.0476598
           O2Z3         -0.0225451   0.0000000   0.0032412   0.0321775
           H1X4          0.0000000  -0.0049906   0.0000000   0.0000000   0.0147648
           H1Y4         -0.0023719   0.0000000  -0.1442380   0.0074462   0.0000000
           H1Z4          0.0025474   0.0000000   0.0214115  -0.0169330   0.0000000
           H2X5          0.0000000   0.0038993   0.0000000   0.0000000   0.0064441
           H2Y5          0.0006097   0.0000000  -0.0053697  -0.0014758   0.0000000
           H2Z5         -0.0181424   0.0000000  -0.0111395  -0.0014370   0.0000000
                             H1Y4        H1Z4        H2X5        H2Y5        H2Z5    
           H1Y4          0.6002209
           H1Z4         -0.0271038   0.0614503
           H2X5          0.0000000   0.0000000   0.0322189
           H2Y5          0.0013194  -0.0031508   0.0000000   0.3711603
           H2Z5         -0.0031429  -0.0061632   0.0000000  -0.0108908   0.0816799


 Mass Weighted 2nd Derivative Matrix Eigenvalues
   1- 10    0.000000    0.000000    0.000000    0.000000    0.000000    0.000000    0.018434    0.018892    0.053962    0.060503
  11- 15    0.077046    0.089757    0.153852    0.401009    0.637490

 Mass Weighted 2nd Derivative Matrix Eigenvectors
              1             2             3             4             5             6             7             8
    1    -0.2470850    -0.0176066    -0.2165072    -0.4143402     0.8133183     0.0406422     0.0000000    -0.1512172
    2     0.8306907    -0.0640679    -0.0534122    -0.2130455     0.1248910     0.0666700     0.2488841     0.0000000
    3     0.1833993     0.0140284    -0.0506513     0.4734833     0.2905153    -0.1353865     0.5380670     0.0000000
    4     0.0047902     0.7158498     0.1250421    -0.0952887     0.1799593     0.0867924     0.0000000     0.2484159
    5     0.3455505    -0.0641594    -0.0175553    -0.0496074     0.0553453     0.3661773    -0.4340426     0.0000000
    6    -0.0727238     0.0067844    -0.0260945     0.4936663     0.2189182     0.0737293     0.0378502     0.0000000
    7     0.0338190     0.0192199     0.9200057    -0.0151789     0.1580262    -0.0103804     0.0000000    -0.3333757
    8    -0.1251560    -0.0862183     0.0199663     0.1318212    -0.0101439     0.8550149     0.1556393     0.0000000
    9     0.1418627     0.0130658    -0.0474626     0.4884696     0.2846474    -0.1011287    -0.4408425     0.0000000
   10    -0.0454093    -0.3350535     0.2842187    -0.0579768     0.1720709    -0.0360903     0.0000000     0.8744988
   11    -0.0235982    -0.0214610     0.0044117     0.0302685    -0.0014418     0.2081746     0.0135729     0.0000000
   12     0.1379739     0.0056519    -0.0197722     0.0856811     0.0859123    -0.1098108    -0.4706362     0.0000000
   13     0.0625208     0.5980856    -0.0283828     0.0334760    -0.0981251     0.0637992     0.0000000     0.1988352
   14     0.0939829    -0.0187362    -0.0046148    -0.0121544     0.0151692     0.1111983    -0.1273969     0.0000000
   15    -0.1386350    -0.0007581     0.0014626     0.1854808     0.0468351     0.1183254    -0.0472946     0.0000000
              9            10            11            12            13            14            15
    1     0.1846098     0.0000000     0.0000000     0.0000000     0.0000000     0.0000000     0.0000000
    2     0.0000000     0.1050056     0.1017277     0.2322899     0.3164236     0.0128009    -0.0000250
    3     0.0000000    -0.2147806     0.1125394    -0.1914585    -0.5014641    -0.0156438     0.0028202
    4    -0.6009924     0.0000000     0.0000000     0.0000000     0.0000000     0.0000000     0.0000000
    5     0.0000000    -0.3327606    -0.4566717    -0.1167456    -0.3592939    -0.2934014    -0.0090994
    6     0.0000000    -0.3087524    -0.3599070    -0.0989906     0.6782830     0.0274569    -0.0014405
    7     0.1250065     0.0000000     0.0000000     0.0000000     0.0000000     0.0000000     0.0000000
    8     0.0000000     0.2052487     0.2991548    -0.1195553     0.0279136     0.0052927    -0.2388068
    9     0.0000000     0.6581463    -0.0106409     0.1095238    -0.0885383    -0.0012987     0.0122403
   10     0.0766584     0.0000000     0.0000000     0.0000000     0.0000000     0.0000000     0.0000000
   11     0.0000000     0.0182967     0.1105830    -0.0440356     0.0161145    -0.0141656     0.9693096
   12     0.0000000    -0.3967768     0.7097660    -0.2293054     0.1241187     0.0095628    -0.0546244
   13     0.7636912     0.0000000     0.0000000     0.0000000     0.0000000     0.0000000     0.0000000
   14     0.0000000    -0.1060572    -0.1318179    -0.0022317    -0.1480980     0.9545032     0.0135489
   15     0.0000000    -0.3041170     0.1261946     0.8972972    -0.1141645    -0.0368104    -0.0004031

   Low Vibration      Wavenumber
        Nr             [1/cm] 
        1                0.00
        2                0.00
        3                0.00
        4                0.00
        5                0.00
        6                0.00

     Vibration        Wavenumber
        Nr             [1/cm] 
        1              697.94
        2              706.55
        3             1194.12
        4             1264.43
        5             1426.86
        6             1540.06
        7             2016.30
        8             3255.23
        9             4104.32

 FREQUENCIES * CALCULATION OF NORMAL MODES FOR HF-SCF


 Atomic Coordinates

  Nr  Atom  Charge       X              Y              Z

   1   O1    8.00    0.000000000    0.403699651   -2.079013463
   2   C     6.00    0.000000000   -0.766028261   -0.190077245
   3   O2    8.00    0.000000000    0.221972821    2.102913233
   4   H1    1.00    0.000000000    2.006133277    1.966649334
   5   H2    1.00    0.000000000   -2.815039327   -0.082738668

 Gradient norm at reference geometry: 0.14715D-06

 Normal Modes

                              1 A`        2 A``       3 A``       4 A`        5 A` 
 Wavenumbers [cm-1]          697.94      706.55     1194.12     1264.43     1426.86
 Intensities [km/mol]          0.00        0.00        0.00        0.00        0.00
 Intensities [relative]        0.00        0.00        0.00        0.00        0.00
           O1X1             0.00000    -0.03781     0.04616    -0.00000    -0.00000
           O1Y1             0.06223     0.00000    -0.00000     0.02626     0.02544
           O1Z1             0.13454     0.00000    -0.00000    -0.05370     0.02814
           CX2             -0.00000     0.07171    -0.17349     0.00000     0.00000
           CY2             -0.12530    -0.00000    -0.00000    -0.09606    -0.13183
           CZ2              0.01093     0.00000    -0.00000    -0.08913    -0.10390
           O2X3             0.00000    -0.08336     0.03126     0.00000     0.00000
           O2Y3             0.03892     0.00000     0.00000     0.05132     0.07480
           O2Z3            -0.11023    -0.00000     0.00000     0.16456    -0.00266
           H1X4            -0.00000     0.87110     0.07636    -0.00000     0.00000
           H1Y4             0.01352     0.00000     0.00000     0.01823     0.11015
           H1Z4            -0.46881    -0.00000    -0.00000    -0.39523     0.70701
           H2X5            -0.00000     0.19806     0.76072    -0.00000    -0.00000
           H2Y5            -0.12690    -0.00000    -0.00000    -0.10564    -0.13131
           H2Z5            -0.04711    -0.00000     0.00000    -0.30293     0.12570

                              6 A`        7 A`        8 A`        9 A` 
 Wavenumbers [cm-1]         1540.06     2016.30     3255.23     4104.32
 Intensities [km/mol]          0.00        0.00        0.00        0.00
 Intensities [relative]        0.00        0.00        0.00        0.00
           O1X1            -0.00000    -0.00000     0.00000     0.00000
           O1Y1             0.05808     0.07912     0.00320    -0.00001
           O1Z1            -0.04787    -0.12539    -0.00391     0.00071
           CX2              0.00000     0.00000     0.00000    -0.00000
           CY2             -0.03370    -0.10372    -0.08470    -0.00263
           CZ2             -0.02858     0.19580     0.00793    -0.00042
           O2X3             0.00000    -0.00000     0.00000    -0.00000
           O2Y3            -0.02989     0.00698     0.00132    -0.05971
           O2Z3             0.02739    -0.02214    -0.00032     0.00306
           H1X4             0.00000    -0.00000    -0.00000    -0.00000
           H1Y4            -0.04386     0.01605    -0.01411     0.96554
           H1Z4            -0.22841     0.12364     0.00953    -0.05441
           H2X5            -0.00000    -0.00000     0.00000    -0.00000
           H2Y5            -0.00222    -0.14752     0.95079     0.01350
           H2Z5             0.89381    -0.11372    -0.03667    -0.00040


 Normal Modes of low/zero frequencies

                                  1           2           3           4           5
 Wavenumbers [cm-1]            0.00        0.00        0.00        0.00        0.00
 Intensities [km/mol]          0.00        0.00        0.00        0.00        0.00
 Intensities [relative]        0.00        0.00        0.00        0.00        0.00
           O1X1            -0.06178    -0.00440    -0.05414    -0.10360     0.20336
           O1Y1             0.20771    -0.01602    -0.01336    -0.05327     0.03123
           O1Z1             0.04586     0.00351    -0.01266     0.11839     0.07264
           CX2              0.00138     0.20665     0.03610    -0.02751     0.05195
           CY2              0.09975    -0.01852    -0.00507    -0.01432     0.01598
           CZ2             -0.02099     0.00196    -0.00753     0.14251     0.06320
           O2X3             0.00846     0.00481     0.23004    -0.00380     0.03951
           O2Y3            -0.03129    -0.02156     0.00499     0.03296    -0.00254
           O2Z3             0.03547     0.00327    -0.01187     0.12214     0.07117
           H1X4            -0.04523    -0.33375     0.28311    -0.05775     0.17140
           H1Y4            -0.02351    -0.02138     0.00439     0.03015    -0.00144
           H1Z4             0.13744     0.00563    -0.01970     0.08535     0.08558
           H2X5             0.06228     0.59576    -0.02827     0.03335    -0.09774
           H2Y5             0.09362    -0.01866    -0.00460    -0.01211     0.01511
           H2Z5            -0.13810    -0.00076     0.00146     0.18476     0.04665

                                  6
 Wavenumbers [cm-1]            0.00
 Intensities [km/mol]          0.00
 Intensities [relative]        0.00
           O1X1             0.01016
           O1Y1             0.01667
           O1Z1            -0.03385
           CX2              0.02505
           CY2              0.10571
           CZ2              0.02128
           O2X3            -0.00260
           O2Y3             0.21379
           O2Z3            -0.02529
           H1X4            -0.03595
           H1Y4             0.20736
           H1Z4            -0.10938
           H2X5             0.06355
           H2Y5             0.11077
           H2Z5             0.11787


 Frequencies dumped to record   5400.2

 Zero point energy:  0.03691954 [H]     8102.90 [1/CM]       96.93 [KJ/MOL]
 Frequency information read from record  5400.2


 **********************************************************************************************************************************
 DATASETS  * FILE   NREC   LENGTH (MB)   RECORD NAMES
              1      18       28.71       500      610      700      900      950      970     1000      129      960     1100   
                                          VAR    BASINP    GEOM    SYMINP    ZMAT    AOBASIS   BASIS     P2S    ABASIS      S 
                                         1400     1410     1200     1210     1080     1600     1650     1700   
                                           T        V       H0       H01     AOSYM     SMH    MOLCAS    OPER   

              2       7        0.48       700     1000      520     2100     5300     5450     5400   
                                         GEOM     BASIS   MCVARS     RHF     HESS     NMOD     FREQ   

              4       5        0.50      4100     4000     4200     4300     4400   

 PROGRAMS   *        TOTAL      FREQ      OPTG    HF-SCF       INT
 CPU TIMES  *         5.77      0.96      4.21      0.05      0.33
 REAL TIME  *         7.32 SEC
 DISK USED  *        29.39 MB (local),      343.04 MB (total)
 SF USED    *         0.50 MB
 GA USED    *         0.00 MB       (max)       0.00 MB       (current)
 **********************************************************************************************************************************

 Dump information in style MOLDEN to hcooh.molden                                                                    

 Molecular orbitals read from record     2100.2  Type=RHF/CANONICAL  
 Occupation numbers read from record     2100.2  Type=RHF/RHF  
 Orbital energies read from record       2100.2  Type=RHF/CANONICAL  
 Redundancy group numbers read from rec  2100.2  Type=RHF/RHF  

 DUMP ORBITAL  1.1 AS ORBITAL    1  occ=    2.0000  eig=  -20.6147  GROUP=   2
 DUMP ORBITAL  2.1 AS ORBITAL    2  occ=    2.0000  eig=  -20.5540  GROUP=   2
 DUMP ORBITAL  3.1 AS ORBITAL    3  occ=    2.0000  eig=  -11.3857  GROUP=   2
 DUMP ORBITAL  4.1 AS ORBITAL    4  occ=    2.0000  eig=   -1.4902  GROUP=   2
 DUMP ORBITAL  5.1 AS ORBITAL    5  occ=    2.0000  eig=   -1.3864  GROUP=   2
 DUMP ORBITAL  6.1 AS ORBITAL    6  occ=    2.0000  eig=   -0.9021  GROUP=   2
 DUMP ORBITAL  7.1 AS ORBITAL    7  occ=    2.0000  eig=   -0.7333  GROUP=   2
 DUMP ORBITAL  8.1 AS ORBITAL    8  occ=    2.0000  eig=   -0.7127  GROUP=   2
 DUMP ORBITAL  1.2 AS ORBITAL    9  occ=    2.0000  eig=   -0.6431  GROUP=   2
 DUMP ORBITAL  9.1 AS ORBITAL   10  occ=    2.0000  eig=   -0.6019  GROUP=   2
 DUMP ORBITAL  2.2 AS ORBITAL   11  occ=    2.0000  eig=   -0.4956  GROUP=   2
 DUMP ORBITAL 10.1 AS ORBITAL   12  occ=    2.0000  eig=   -0.4693  GROUP=   2

 Total charge:      24.000000
 Frequency information read from record  5400.2

 **********************************************************************************************************************************

 HF/6-311G(D,P)//HF/6-311G(D,P) energy=   -188.820524890671

    OPTG(HF-SCF)          HF-SCF
   -188.82052489   -188.81773240
 **********************************************************************************************************************************
 Molpro calculation terminated
