
 Working directory              : /scratch/jsc/tmpdir_709687/molpro.6leOh4XYJo/
 Global scratch directory       : /scratch/jsc/tmpdir_709687/molpro.6leOh4XYJo/
 Wavefunction directory         : /home/jsc/storage_5/forkemal/nomo_HDEECA/
 Main file repository           : /home/jsc/storage_5/forkemal/nomo_HDEECA/

 id        : liedlgroup

 Nodes     nprocs
 rune04       5
 GA implementation: MPI file
 GA implementation (serial work in mppx): MPI file

 Using customized tuning parameters: mindgm=1; mindgv=20; mindgc=4; mindgr=1; noblas=0; minvec=7
 default implementation of scratch files=sf  


 Variables initialized (1015), CPU time= 0.01 sec
 
 memory,300,m
 
 file,1,d2co3_ee_ccf12tz.int
 file,2,d2co3_ee_ccf12tz.wfu
 
 orient,mass
 geometry={
 O1
 C,O1,B1
 O2,C,B2,O1,A1
 H1,O2,B3,C,A2,O1,0.0
 O3,C,B2,O1,A1,H1,180.0
 H2,O3,B3,C,A2,O1,0.0
 }
  B1=                  1.21742568 ANG
  B2=                  1.35261183 ANG
  A1=                125.92848763 DEGREE
  B3=                  0.97078208 ANG
  A2=                105.67504482 DEGREE
 
 mass,H2=2.01402
 basis=vdz
 hf
 optg
 freq,symm=auto,print=0
 put,molden,molden.dat
 
 
 
 
 Commands initialized (818), CPU time= 0.01 sec, 672 directives.
 Default parameters read. Elapsed time= 0.17 sec

 Checking input...
 Passed
1


                                         ***  PROGRAM SYSTEM MOLPRO  ***
                                       Copyright, TTI GmbH Stuttgart, 2015
                                    Version 2022.1 linked Jan 25 2022 12:44:58


 **********************************************************************************************************************************
 LABEL *                                                                                 
  64 bit mpp version                                                                     DATE: 15-Nov-22          TIME: 14:57:25  
 **********************************************************************************************************************************

 SHA1:             f3d4322b9bdbeed63a35be676bd653804e8a9433
 **********************************************************************************************************************************

 Memory per process:       300 MW
 Total memory per node:   1500 MW

 GA preallocation disabled
 GA check disabled

 Variable memory set to 300.0 MW



 Permanent file  1  d2co3_ee_ccf12tz.int             assigned.  Implementation=df  
 Permanent file  2  d2co3_ee_ccf12tz.wfu             assigned.  Implementation=df  



 **********************************************************************************************************************************
 DATASETS  * FILE   NREC   LENGTH (MB)   RECORD NAMES
              1       1        0.03       500   
                                          VAR  

              2       1        0.03       500   
                                          VAR  

 PROGRAMS   *        TOTAL      FILE
 CPU TIMES  *         0.18      0.00
 REAL TIME  *         0.25 SEC
 DISK USED  *         0.10 MB (local),        0.51 MB (total)
 **********************************************************************************************************************************
 ZCENTRE=MASS

 SETTING B1             =         1.21742568  ANG                             
 SETTING B2             =         1.35261183  ANG                             
 SETTING A1             =       125.92848763  DEGREE                          
 SETTING B3             =         0.97078208  ANG                             
 SETTING A2             =       105.67504482  DEGREE                          

 SETTING MASS FOR H2   (Z=  1)   TO   2.014
 SETTING BASIS          =    VDZ


 Recomputing integrals since basis changed


 Using spherical harmonics

 Library entry O      S cc-pVDZ              selected for orbital group  1
 Library entry O      P cc-pVDZ              selected for orbital group  1
 Library entry O      D cc-pVDZ              selected for orbital group  1
 Library entry C      S cc-pVDZ              selected for orbital group  2
 Library entry C      P cc-pVDZ              selected for orbital group  2
 Library entry C      D cc-pVDZ              selected for orbital group  2
 Library entry H      S cc-pVDZ              selected for orbital group  4
 Library entry H      P cc-pVDZ              selected for orbital group  4


 PROGRAM * SEWARD (Integral evaluation for generally contracted gaussian basis sets)     Author: Roland Lindh, 1990

 Geometry written to block  1 of record 700

 Orientation using atomic masses  
 Molecule type: Asymmetric top
 Symmetry elements: X
 Rotational constants:       5.4900747     10.3672800     11.6700318 GHz  (calculated with average atomic masses)

 Point group  Cs  



 ATOMIC COORDINATES

 NR  ATOM    CHARGE       X              Y              Z

   1  O1      8.00    0.000000000    2.492512206    0.131075636
   2  C       6.00    0.000000000    0.192953669    0.061822403
   3  O2      8.00    0.000000000   -1.368507151    2.085510386
   4  H1      1.00    0.000000000   -0.272888882    3.556923256
   5  O3      8.00    0.000000000   -1.243897487   -2.052162388
   6  D2      1.00    0.000000000   -0.061719311   -3.454977410

 Bond lengths in Bohr (Angstrom)

 1-2  2.300601112  2-3  2.556065912  2-5  2.556065912  3-4  1.834512258  5-6  1.834512258
     ( 1.217425680)     ( 1.352611830)     ( 1.352611830)     ( 0.970782080)     ( 0.970782080)

 Bond angles

  1-2-3  125.92848763   1-2-5  125.92848763   2-3-4  105.67504482   2-5-6  105.67504482

  3-2-5  108.14302474

 NUCLEAR CHARGE:                   32
 NUMBER OF PRIMITIVE AOS:         122
 NUMBER OF SYMMETRY AOS:          118
 NUMBER OF CONTRACTIONS:           66   (   48A'  +   18A"  )
 NUMBER OF INNER CORE ORBITALS:     0   (    0A'  +    0A"  )
 NUMBER OF OUTER CORE ORBITALS:     4   (    4A'  +    0A"  )
 NUMBER OF VALENCE ORBITALS:       18   (   14A'  +    4A"  )


 NUCLEAR REPULSION ENERGY  122.17303562

 Eigenvalues of metric

         1 0.869E-02 0.102E-01 0.111E-01 0.239E-01 0.391E-01 0.398E-01 0.549E-01 0.693E-01
         2 0.964E-01 0.169E+00 0.178E+00 0.195E+00 0.430E+00 0.518E+00 0.547E+00 0.627E+00


 Contracted 2-electron integrals neglected if value below      1.0D-11
 AO integral compression algorithm  1   Integral accuracy      1.0D-11

     7.602 MB (compressed) written to integral file ( 59.1%)

     Node minimum: 1.311 MB, node maximum: 1.573 MB


 NUMBER OF SORTED TWO-ELECTRON INTEGRALS:     261577.     BUFFER LENGTH:  32768
 NUMBER OF SEGMENTS:   1  SEGMENT LENGTH:     261577      RECORD LENGTH: 524288

 Memory used in sort:       0.82 MW

 SORT1 READ     1524587. AND WROTE      258457. INTEGRALS IN      1 RECORDS. CPU TIME:     0.03 SEC, REAL TIME:     0.04 SEC
 SORT2 READ     1296542. AND WROTE     1310070. INTEGRALS IN     30 RECORDS. CPU TIME:     0.02 SEC, REAL TIME:     0.02 SEC

 Node minimum:      260770.  Node maximum:      265376. integrals

 OPERATOR DM      FOR CENTER  0  COORDINATES:    0.000000    0.000000    0.000000


 **********************************************************************************************************************************
 DATASETS  * FILE   NREC   LENGTH (MB)   RECORD NAMES
              1      18       28.71       500      610      700      900      950      970     1000      129      960     1100   
                                          VAR    BASINP    GEOM    SYMINP    ZMAT    AOBASIS   BASIS     P2S    ABASIS      S 
                                         1400     1410     1200     1210     1080     1600     1650     1700   
                                           T        V       H0       H01     AOSYM     SMH    MOLCAS    OPER   

              2       5       11.76       500      610      700     1000      520   
                                          VAR    BASINP    GEOM     BASIS   MCVARS    

 PROGRAMS   *        TOTAL       INT      FILE
 CPU TIMES  *         0.47      0.29      0.00
 REAL TIME  *         0.76 SEC
 DISK USED  *        40.52 MB (local),      228.32 MB (total)
 GA USED    *         0.00 MB       (max)       0.00 MB       (current)
 **********************************************************************************************************************************


 Program * Restricted Hartree-Fock

 Orbital guess generated from atomic densities. Full valence occupancy:   18   4

 Initial occupancy:  13   3

 NELEC=   32   SYM=1   MS2= 0   THRE=1.0D-08   THRD=1.0D-06   THRG=1.0D-06  HFMA2=F  DIIS_START=2   DIIS_MAX=10   DIIS_INCORE=F

 Level shifts:    0.00 (CLOSED)    0.00 (OPEN)    0.30 (GAP_MIN)

 ITER           ETOT              DE          GRAD        DDIFF     DIIS  NEXP   TIME(IT)  TIME(TOT)  DIAG
   1     -263.55357692    -263.55357692     0.00D+00     0.20D+00     0     0       0.00      0.00    start
   2     -263.62915923      -0.07558231     0.17D-01     0.43D-01     1     0       0.01      0.01    diag
   3     -263.67227558      -0.04311635     0.11D-01     0.16D-01     2     0       0.00      0.01    diag
   4     -263.67343458      -0.00115900     0.14D-02     0.27D-02     3     0       0.00      0.01    diag
   5     -263.67366934      -0.00023477     0.62D-03     0.12D-02     4     0       0.01      0.02    diag
   6     -263.67370611      -0.00003677     0.18D-03     0.41D-03     5     0       0.00      0.02    diag
   7     -263.67371210      -0.00000599     0.62D-04     0.20D-03     6     0       0.00      0.02    diag
   8     -263.67371259      -0.00000049     0.18D-04     0.63D-04     7     0       0.01      0.03    fixocc
   9     -263.67371262      -0.00000003     0.52D-05     0.17D-04     8     0       0.00      0.03    diag
  10     -263.67371262      -0.00000000     0.17D-05     0.57D-05     9     0       0.00      0.03    diag/orth
  11     -263.67371262      -0.00000000     0.25D-06     0.76D-06     9     0       0.01      0.04    diag
  12     -263.67371262      -0.00000000     0.52D-07     0.11D-06     0     0       0.00      0.04    diag

 Final occupancy:  13   3

 !RHF STATE 1.1 Energy               -263.673712623761
  RHF One-electron energy            -604.901367410649
  RHF Two-electron energy             219.054619163999
  RHF Kinetic energy                  263.247491731667
  RHF Nuclear energy                  122.173035622889
  RHF Virial quotient                  -1.001619088141

 !RHF STATE 1.1 Dipole moment           0.00000000    -0.07075042    -0.00213071
 Dipole moment /Debye                   0.00000000    -0.17982963    -0.00541573

 Orbital energies:

           1.1          2.1          3.1          4.1          5.1          6.1          7.1          8.1          9.1         10.1
    -20.631687   -20.631657   -20.562113   -11.456814    -1.512874    -1.408408    -1.371633    -0.895158    -0.735504    -0.727739

          11.1         12.1         13.1         14.1         15.1
     -0.665442    -0.604704    -0.478911     0.167797     0.199065

           1.2          2.2          3.2          4.2          5.2
     -0.678254    -0.548627    -0.486541     0.211247     0.650049


 HOMO     13.1    -0.478911 =     -13.0318eV
 LUMO     14.1     0.167797 =       4.5660eV
 LUMO-HOMO         0.646708 =      17.5978eV

 Orbitals saved in record  2100.2


 **********************************************************************************************************************************
 DATASETS  * FILE   NREC   LENGTH (MB)   RECORD NAMES
              1      18       28.71       500      610      700      900      950      970     1000      129      960     1100   
                                          VAR    BASINP    GEOM    SYMINP    ZMAT    AOBASIS   BASIS     P2S    ABASIS      S 
                                         1400     1410     1200     1210     1080     1600     1650     1700   
                                           T        V       H0       H01     AOSYM     SMH    MOLCAS    OPER   

              2       6       11.94       500      610      700     1000      520     2100   
                                          VAR    BASINP    GEOM     BASIS   MCVARS     RHF  

 PROGRAMS   *        TOTAL    HF-SCF       INT      FILE
 CPU TIMES  *         0.52      0.05      0.29      0.00
 REAL TIME  *         0.83 SEC
 DISK USED  *        40.88 MB (local),      230.13 MB (total)
 GA USED    *         0.00 MB       (max)       0.00 MB       (current)
 **********************************************************************************************************************************


 PROGRAM * OPT (Geometry optimization)     Authors: F. Eckert and H.-J. Werner


 BFGS update of hessian

 *** Long output written to logfile /media/storage_5/jsc/forkemal/nomo_HDEECA/hdco3.log ***


 Geometry optimization using default procedure for command HF-SCF

 Geometry written to block  1 of record 700

 Making model hessian for Z-matrix coordinates

 Entering Rational Function Geometry Optimization

 ITER.   ENERGY(OLD)    ENERGY(NEW)      DE          GRADMAX     GRADNORM    GRADRMS     STEPMAX     STEPLEN     STEPRMS   CPU-time
   1  -263.67371262  -263.67966769    -0.00595507  0.08063368  0.11679445  0.05223207  0.06185465  0.08719582  0.01743916      0.59
   2  -263.67966769  -263.68000089    -0.00033319  0.02441271  0.02721891  0.01217266  0.01901131  0.02392392  0.00478478      1.14
   3  -263.68000089  -263.68002574    -0.00002485  0.00550781  0.00654077  0.00292512  0.00445046  0.00653807  0.00130761      1.66
   4  -263.68002574  -263.68002778    -0.00000204  0.00142403  0.00182367  0.00081557  0.00155109  0.00234094  0.00046819      2.15
   5  -263.68002778  -263.68002779    -0.00000001  0.00010633  0.00015161  0.00006780  0.00012246  0.00014527  0.00002905      2.58

 END OF GEOMETRY OPTIMIZATION.

 Optimized variables
 B1=                  1.18544979 ANG
 B2=                  1.31467681 ANG
 A1=                125.20012555 DEGREE
 B3=                  0.94936720 ANG
 A2=                107.52222333 DEGREE

 **********************************************************************************************************************************

 Geometry written to block  1 of record 700

 Recomputing wavefunction for reoriented structure

 Current geometry (xyz format, in Angstrom)

    6
 HF-SCF000/VDZ  ENERGY=-263.68002779
 O          0.0000000000        1.2768849372        0.0614720095
 C          0.0000000000        0.0918132534        0.0315337798
 O          0.0000000000       -0.6929002524        1.0863322634
 H          0.0000000000       -0.1371507173        1.8560338506
 O          0.0000000000       -0.6386389322       -1.0615420326
 H          0.0000000000       -0.0447334819       -1.8022001151

 **********************************************************************************************************************************


 **********************************************************************************************************************************
 DATASETS  * FILE   NREC   LENGTH (MB)   RECORD NAMES
              1      18       28.71       500      610      700      900      950      970     1000      129      960     1100   
                                          VAR    BASINP    GEOM    SYMINP    ZMAT    AOBASIS   BASIS     P2S    ABASIS      S 
                                         1400     1410     1200     1210     1080     1600     1650     1700   
                                           T        V       H0       H01     AOSYM     SMH    MOLCAS    OPER   

              2       6       11.94       500      610      700     1000      520     2100   
                                          VAR    BASINP    GEOM     BASIS   MCVARS     RHF  

 PROGRAMS   *        TOTAL      OPTG    HF-SCF       INT      FILE
 CPU TIMES  *         3.14      2.61      0.05      0.29      0.00
 REAL TIME  *         3.78 SEC
 DISK USED  *        40.88 MB (local),      230.17 MB (total)
 SF USED    *         0.01 MB
 GA USED    *         0.00 MB       (max)       0.00 MB       (current)
 **********************************************************************************************************************************


 PROGRAM * HESSIAN

 Computing numerical hessian using default procedure for command HF-SCF

 Symmetry elements for unique displacements: X  

 Using AUTO symmetry option

 Running default procedure: HF-SCF000


 Numerically approximating hessian using central gradient differences

 Task list generated. Total number of displacements:     30

   25 tasks completed, CPU=7s Elapsed=7s

 All  30 tasks completed.  CPU=      8.75 sec, Elapsed=      8.78 sec.

 HF-SCF hessian saved to record  5300.2

 PROGRAM * FREQUENCIES (Calculation of harmonic vibrational spectra for HF-SCF)


 Permanent Dipole Moment [debye]
   1-  3    0.000000   -0.268005   -0.006771

 Dipole Moment Norm    0.2680902 [debye]

 Dipole Moment Derivatives [debye/ang]
              1             2             3             4             5             6             7             8
    1    -2.4672367     0.0000000     0.0000000     3.2483010     0.0000000     0.0000000    -2.1859479     0.0000000
    2     0.0000000    -6.9644226    -0.0783236     0.0000000    11.3152470     0.0083580     0.0000000    -3.5488993
    3     0.0000000    -0.0783878    -3.8635700     0.0000000     0.0083720    10.9835790     0.0000000     1.8116766
              9            10            11            12            13            14            15            16
    1     0.0000000     1.7953860     0.0000000     0.0000000    -2.1859469     0.0000000     0.0000000     1.7953856
    2     2.1308902     0.0000000     1.2791639    -0.0327006     0.0000000    -3.3551493    -2.0204780     0.0000000
    3    -5.5390707     0.0000000    -0.1031190     2.0736381     0.0000000    -1.7012526    -5.7328163     0.0000000
             17            18
    1     0.0000000     0.0000000
    2     1.2743409    -0.0077133
    3     0.0627063     2.0784625

 Projecting out rotations and translations

 Force Constants (Second Derivatives of the Energy) in [a.u.]
                             O1X1        O1Y1        O1Z1        CX2         CY2     
           O1X1          0.0481350
           O1Y1          0.0000000   1.0276914
           O1Z1          0.0000000   0.0225885   0.1341193
           CX2          -0.1156364   0.0000000   0.0000000   0.2938874
           CY2           0.0000000  -0.8601124  -0.0178964   0.0000000   1.2711549
           CZ2           0.0000000  -0.0178963  -0.1521362   0.0000000   0.0102336
           O2X3          0.0388875   0.0000000   0.0000000  -0.0908630   0.0000000
           O2Y3          0.0000000  -0.0810297   0.0738185   0.0000000  -0.2406484
           O2Z3          0.0000000   0.0567640   0.0026923   0.0000000   0.1274177
           H1X4         -0.0051368   0.0000000   0.0000000   0.0017375   0.0000000
           H1Y4          0.0000000  -0.0059583  -0.0023666   0.0000000   0.0296591
           H1Z4          0.0000000  -0.0063816   0.0095142   0.0000000  -0.0289794
           O3X5          0.0388876   0.0000000   0.0000000  -0.0908630   0.0000000
           O3Y5          0.0000000  -0.0742308  -0.0777072   0.0000000  -0.2296062
           O3Z5          0.0000000  -0.0606534  -0.0041064   0.0000000  -0.1237176
           H2X6         -0.0051369   0.0000000   0.0000000   0.0017375   0.0000000
           H2Y6          0.0000000  -0.0063602   0.0015632   0.0000000   0.0295529
           H2Z6          0.0000000   0.0055788   0.0099168   0.0000000   0.0329421
                             CZ2         O2X3        O2Y3        O2Z3        H1X4    
           CZ2           0.8663281
           O2X3          0.0000000   0.0476305
           O2Y3          0.0946966   0.0000000   0.5558958
           O2Z3         -0.3027964   0.0000000   0.0854247   0.7958659
           H1X4          0.0000000  -0.0151165   0.0000000   0.0000000   0.0129843
           H1Y4          0.0308477   0.0000000  -0.2579622  -0.2917205   0.0000000
           H1Z4         -0.0488288   0.0000000  -0.2243652  -0.3953548   0.0000000
           O3X5          0.0000000   0.0160158   0.0000000   0.0000000   0.0034456
           O3Y5         -0.0909974   0.0000000   0.0267925   0.0293954   0.0000000
           O3Z5         -0.3138436   0.0000000  -0.0231132  -0.0974657   0.0000000
           H2X6          0.0000000   0.0034456   0.0000000   0.0000000   0.0020859
           H2Y6         -0.0268841   0.0000000  -0.0030480  -0.0072812   0.0000000
           H2Z6         -0.0487230   0.0000000  -0.0064615  -0.0029413   0.0000000
                             H1Y4        H1Z4        O3X5        O3Y5        O3Z5    
           H1Y4          0.2369885
           H1Z4          0.2545907   0.4383373
           O3X5          0.0000000   0.0000000   0.0476307
           O3Y5         -0.0037410   0.0064204   0.0000000   0.5651239
           O3Z5          0.0072407  -0.0022481   0.0000000  -0.0970886   0.7866369
           H2X6          0.0000000   0.0000000  -0.0151166   0.0000000   0.0000000
           H2Y6          0.0010139  -0.0012850   0.0000000  -0.2843383   0.2973321
           H2Z6          0.0014081  -0.0014197   0.0000000   0.2299775  -0.3689730
                             H2X6        H2Y6        H2Z6    
           H2X6          0.0129845
           H2Y6          0.0000000   0.2631797
           H2Z6          0.0000000  -0.2634451   0.4121402


 Atomic Masses
   1-  6   15.999400   12.011000   15.999400    1.007940   15.999400    2.014020

 Mass weighted Second Derivative Matrix
                             O1X1        O1Y1        O1Z1        CX2         CY2     
           O1X1          0.0030086
           O1Y1          0.0000000   0.0642331
           O1Z1          0.0000000   0.0014118   0.0083828
           CX2          -0.0083417   0.0000000   0.0000000   0.0244682
           CY2           0.0000000  -0.0620460  -0.0012910   0.0000000   0.1058326
           CZ2           0.0000000  -0.0012910  -0.0109747   0.0000000   0.0008520
           O2X3          0.0024306   0.0000000   0.0000000  -0.0065546   0.0000000
           O2Y3          0.0000000  -0.0050645   0.0046138   0.0000000  -0.0173597
           O2Z3          0.0000000   0.0035479   0.0001683   0.0000000   0.0091915
           H1X4         -0.0012792   0.0000000   0.0000000   0.0004994   0.0000000
           H1Y4          0.0000000  -0.0014837  -0.0005893   0.0000000   0.0085242
           H1Z4          0.0000000  -0.0015891   0.0023692   0.0000000  -0.0083288
           O3X5          0.0024306   0.0000000   0.0000000  -0.0065546   0.0000000
           O3Y5          0.0000000  -0.0046396  -0.0048569   0.0000000  -0.0165631
           O3Z5          0.0000000  -0.0037910  -0.0002567   0.0000000  -0.0089246
           H2X6         -0.0009049   0.0000000   0.0000000   0.0003533   0.0000000
           H2Y6          0.0000000  -0.0011204   0.0002754   0.0000000   0.0060087
           H2Z6          0.0000000   0.0009828   0.0017470   0.0000000   0.0066978
                             CZ2         O2X3        O2Y3        O2Z3        H1X4    
           CZ2           0.0721279
           O2X3          0.0000000   0.0029770
           O2Y3          0.0068311   0.0000000   0.0347448
           O2Z3         -0.0218429   0.0000000   0.0053392   0.0497435
           H1X4          0.0000000  -0.0037643   0.0000000   0.0000000   0.0128820
           H1Y4          0.0088658   0.0000000  -0.0642372  -0.0726437   0.0000000
           H1Z4         -0.0140336   0.0000000  -0.0558710  -0.0984505   0.0000000
           O3X5          0.0000000   0.0010010   0.0000000   0.0000000   0.0008580
           O3Y5         -0.0065643   0.0000000   0.0016746   0.0018373   0.0000000
           O3Z5         -0.0226398   0.0000000  -0.0014446  -0.0060918   0.0000000
           H2X6          0.0000000   0.0006070   0.0000000   0.0000000   0.0014640
           H2Y6         -0.0054660   0.0000000  -0.0005370  -0.0012827   0.0000000
           H2Z6         -0.0099063   0.0000000  -0.0011383  -0.0005181   0.0000000
                             H1Y4        H1Z4        O3X5        O3Y5        O3Z5    
           H1Y4          0.2351216
           H1Z4          0.2525851   0.4348843
           O3X5          0.0000000   0.0000000   0.0029770
           O3Y5         -0.0009316   0.0015988   0.0000000   0.0353216
           O3Z5          0.0018031  -0.0005598   0.0000000  -0.0060683   0.0491666
           H2X6          0.0000000   0.0000000  -0.0026630   0.0000000   0.0000000
           H2Y6          0.0007116  -0.0009019   0.0000000  -0.0500901   0.0523791
           H2Z6          0.0009883  -0.0009965   0.0000000   0.0405137  -0.0649996
                             H2X6        H2Y6        H2Z6    
           H2X6          0.0064470
           H2Y6          0.0000000   0.1306738
           H2Z6          0.0000000  -0.1308056   0.2046356


 Mass Weighted 2nd Derivative Matrix Eigenvalues
   1- 10    0.000000    0.000000    0.000000    0.000000    0.000000    0.000000    0.007589    0.012349    0.014026    0.015826
  11- 18    0.031144    0.038254    0.050823    0.071072    0.096855    0.155350    0.341037    0.643302

 Mass Weighted 2nd Derivative Matrix Eigenvectors
              1             2             3             4             5             6             7             8
    1     0.9489149     0.0077320     0.0059340    -0.0001577     0.0016213    -0.0003855    -0.0548504     0.0000000
    2    -0.0016133     0.3279270    -0.1494780     0.3494685    -0.0442111    -0.0236543     0.0000000    -0.3687156
    3    -0.0008010     0.2458461    -0.3330432    -0.3442622     0.5038146     0.0924601     0.0000000    -0.2189861
    4     0.2714338     0.1755099     0.2835154    -0.0297240     0.0732842     0.0469110    -0.1065747     0.0000000
    5    -0.0014134     0.2896401    -0.1342963     0.2949782    -0.0380070    -0.0175383     0.0000000    -0.3099397
    6    -0.0000761    -0.0051576    -0.0992386     0.0110578     0.4246812    -0.0369253     0.0000000     0.0504293
    7    -0.0827164     0.2149770     0.5295502     0.0939957     0.1834801     0.6853210     0.2026564     0.0000000
    8    -0.0009966     0.1101693     0.0394887     0.6582264    -0.0560319    -0.1404704     0.0000000     0.1449161
    9     0.0003843    -0.1726850     0.0301515     0.2491716     0.4810949    -0.1320609     0.0000000     0.4628439
   10     0.0584534     0.0104457     0.0932593     0.0542477     0.0440476     0.2706224    -0.0493527     0.0000000
   11    -0.0001339    -0.0133965     0.0455327     0.2234142    -0.0162920    -0.0572778     0.0000000     0.1943290
   12     0.0000125    -0.0137048    -0.0181518     0.0205168     0.1223614    -0.0172472     0.0000000     0.0061249
   13    -0.1034256     0.4392546     0.5356658    -0.2062676     0.0917494    -0.5073202    -0.3625332     0.0000000
   14    -0.0022890     0.5665400    -0.3565426     0.0111400    -0.0312582     0.1043496     0.0000000     0.2767343
   15     0.0003517    -0.1611558     0.0201467     0.2328244     0.4817208    -0.1258760     0.0000000    -0.3468269
   16     0.0701131     0.1502936     0.1355233    -0.1047626     0.0068324    -0.3381553     0.9003875     0.0000000
   17    -0.0009703     0.2568418    -0.1749530    -0.0752158    -0.0080593     0.0669756     0.0000000     0.4702215
   18    -0.0000020    -0.0124056    -0.0317044     0.0191234     0.1733435    -0.0206425     0.0000000     0.1627350
              9            10            11            12            13            14            15            16
    1    -0.0326866     0.0000000    -0.3088459     0.0000000     0.0000000     0.0000000     0.0000000     0.0000000
    2     0.0000000    -0.1410988     0.0000000     0.1667692    -0.4066116     0.3171410     0.0776911    -0.5383477
    3     0.0000000     0.6078825     0.0000000    -0.1059379    -0.0870066     0.0033900    -0.1058038    -0.0164024
    4    -0.1505491     0.0000000     0.8790114     0.0000000     0.0000000     0.0000000     0.0000000     0.0000000
    5     0.0000000    -0.0916857     0.0000000     0.1238608    -0.1692861     0.0123619    -0.0557740     0.8109046
    6     0.0000000    -0.2235727     0.0000000     0.0581532    -0.0402747    -0.2583064     0.8261732     0.0379392
    7    -0.2245131     0.0000000    -0.2507564     0.0000000     0.0000000     0.0000000     0.0000000     0.0000000
    8     0.0000000     0.4285554     0.0000000    -0.2880652     0.0506868    -0.4577263     0.0102321    -0.1122134
    9     0.0000000     0.0376623     0.0000000     0.5214616    -0.1638407     0.1788981    -0.2639867     0.0415277
   10     0.9482274     0.0000000     0.0899241     0.0000000     0.0000000     0.0000000     0.0000000     0.0000000
   11     0.0000000     0.3102277     0.0000000    -0.0989098     0.2151861     0.5985048     0.2832376     0.1104663
   12     0.0000000    -0.1349011     0.0000000     0.1544287    -0.1856586    -0.4448190    -0.2532683    -0.0836875
   13     0.1052627     0.0000000    -0.2420168     0.0000000     0.0000000     0.0000000     0.0000000     0.0000000
   14     0.0000000    -0.2130576     0.0000000     0.1837379     0.5699023    -0.0491096    -0.0896930    -0.0979031
   15     0.0000000    -0.3378563     0.0000000    -0.3291491     0.4233114     0.1121037    -0.2432620    -0.0539249
   16     0.1250798     0.0000000     0.0491526     0.0000000     0.0000000     0.0000000     0.0000000     0.0000000
   17     0.0000000    -0.2052572     0.0000000    -0.4084977    -0.3419197     0.0810668    -0.0591796     0.0511240
   18     0.0000000    -0.2258105     0.0000000    -0.4947097    -0.2563975     0.1157345    -0.1105045     0.0477252
             17            18
    1     0.0000000     0.0000000
    2     0.0050906    -0.0034197
    3     0.0007209     0.0015295
    4     0.0000000     0.0000000
    5     0.0016548    -0.0024654
    6     0.0017876    -0.0051504
    7     0.0000000     0.0000000
    8    -0.0001298    -0.1332209
    9     0.0068618    -0.2010416
   10     0.0000000     0.0000000
   11     0.0005380     0.5509622
   12     0.0034836     0.7988832
   13     0.0000000     0.0000000
   14     0.1983664     0.0002992
   15    -0.2736484     0.0036671
   16     0.0000000     0.0000000
   17    -0.5775020     0.0005316
   18     0.7430794    -0.0005874

   Low Vibration      Wavenumber
        Nr             [1/cm] 
        1                0.00
        2                0.00
        3                0.00
        4                0.00
        5                0.00
        6                0.00

     Vibration        Wavenumber
        Nr             [1/cm] 
        1              447.81
        2              571.25
        3              608.81
        4              646.68
        5              907.18
        6             1005.41
        7             1158.87
        8             1370.42
        9             1599.80
       10             2026.09
       11             3001.96
       12             4122.98

 FREQUENCIES * CALCULATION OF NORMAL MODES FOR HF-SCF


 Atomic Coordinates

  Nr  Atom  Charge       X              Y              Z

   1   O1    8.00    0.000000000    2.412962824    0.116165262
   2   C     6.00    0.000000000    0.173501904    0.059590207
   3   O2    8.00    0.000000000   -1.309391709    2.052870458
   4   H1    1.00    0.000000000   -0.259177293    3.507395656
   5   O3    8.00    0.000000000   -1.206852674   -2.006023711
   6   D2    1.00    0.000000000   -0.084534029   -3.405664639

 Gradient norm at reference geometry: 0.21196D-03

 Normal Modes

                              1 A``       2 A`        3 A``       4 A`        5 A``
 Wavenumbers [cm-1]          447.81      571.25      608.81      646.68      907.18
 Intensities [km/mol]         48.57       13.56      136.63       64.41       95.92
 Intensities [relative]        7.16        2.00       20.15        9.50       14.15
           O1X1            -0.01371     0.00000    -0.00817     0.00000    -0.07721
           O1Y1             0.00000    -0.09218    -0.00000    -0.03528    -0.00000
           O1Z1            -0.00000    -0.05475     0.00000     0.15197     0.00000
           CX2             -0.03075     0.00000    -0.04344     0.00000     0.25363
           CY2             -0.00000    -0.08943    -0.00000    -0.02646    -0.00000
           CZ2             -0.00000     0.01455    -0.00000    -0.06451    -0.00000
           O2X3             0.05067     0.00000    -0.05613     0.00000    -0.06269
           O2Y3             0.00000     0.03623     0.00000     0.10714    -0.00000
           O2Z3             0.00000     0.11571     0.00000     0.00942     0.00000
           H1X4            -0.04916    -0.00000     0.94449    -0.00000     0.08957
           H1Y4             0.00000     0.19356     0.00000     0.30900     0.00000
           H1Z4            -0.00000     0.00610    -0.00000    -0.13437     0.00000
           O3X5            -0.09063     0.00000     0.02632    -0.00000    -0.06051
           O3Y5            -0.00000     0.06918    -0.00000    -0.05327    -0.00000
           O3Z5            -0.00000    -0.08671    -0.00000    -0.08447    -0.00000
           H2X6             0.63445    -0.00000     0.08814    -0.00000     0.03463
           H2Y6             0.00000     0.33134    -0.00000    -0.14463    -0.00000
           H2Z6            -0.00000     0.11467    -0.00000    -0.15912     0.00000

                              6 A`        7 A`        8 A`        9 A`       10 A` 
 Wavenumbers [cm-1]         1005.41     1158.87     1370.42     1599.80     2026.09
 Intensities [km/mol]         15.82      106.86      238.75      321.82      678.04
 Intensities [relative]        2.33       15.76       35.21       47.46      100.00
           O1X1            -0.00000     0.00000    -0.00000    -0.00000     0.00000
           O1Y1             0.04169    -0.10165     0.07929     0.01942    -0.13459
           O1Z1            -0.02648    -0.02175     0.00085    -0.02645    -0.00410
           CX2              0.00000     0.00000    -0.00000    -0.00000     0.00000
           CY2              0.03574    -0.04885     0.00357    -0.01609     0.23398
           CZ2              0.01678    -0.01162    -0.07453     0.23839     0.01095
           O2X3             0.00000     0.00000    -0.00000    -0.00000     0.00000
           O2Y3            -0.07202     0.01267    -0.11443     0.00256    -0.02805
           O2Z3             0.13037    -0.04096     0.04473    -0.06600     0.01038
           H1X4             0.00000     0.00000    -0.00000    -0.00000    -0.00000
           H1Y4            -0.09852     0.21434     0.59614     0.28212     0.11003
           H1Z4             0.15382    -0.18493    -0.44306    -0.25227    -0.08336
           O3X5             0.00000    -0.00000    -0.00000     0.00000    -0.00000
           O3Y5             0.04594     0.14248    -0.01228    -0.02242    -0.02448
           O3Z5            -0.08229     0.10583     0.02803    -0.06082    -0.01348
           H2X6             0.00000     0.00000    -0.00000     0.00000     0.00000
           H2Y6            -0.28784    -0.24093     0.05712    -0.04170     0.03602
           H2Z6            -0.34859    -0.18067     0.08155    -0.07787     0.03363

                             11 A`       12 A` 
 Wavenumbers [cm-1]         3001.96     4122.98
 Intensities [km/mol]         92.44      154.75
 Intensities [relative]       13.63       22.82
           O1X1             0.00000     0.00000
           O1Y1             0.00127    -0.00085
           O1Z1             0.00018     0.00038
           CX2             -0.00000    -0.00000
           CY2              0.00048    -0.00071
           CZ2              0.00052    -0.00149
           O2X3            -0.00000     0.00000
           O2Y3            -0.00003    -0.03331
           O2Z3             0.00172    -0.05026
           H1X4             0.00000    -0.00000
           H1Y4             0.00054     0.54879
           H1Z4             0.00347     0.79573
           O3X5            -0.00000    -0.00000
           O3Y5             0.04959     0.00007
           O3Z5            -0.06841     0.00092
           H2X6             0.00000     0.00000
           H2Y6            -0.40693     0.00037
           H2Z6             0.52360    -0.00041


 Normal Modes of low/zero frequencies

                                  1           2           3           4           5
 Wavenumbers [cm-1]            0.00        0.00        0.00        0.00        0.00
 Intensities [km/mol]          0.00        0.00        0.00        0.00        0.00
 Intensities [relative]        0.00        0.00        0.00        0.00        0.00
           O1X1             0.23723     0.00193     0.00148    -0.00004     0.00041
           O1Y1            -0.00040     0.08198    -0.03737     0.08737    -0.01105
           O1Z1            -0.00020     0.06146    -0.08326    -0.08607     0.12596
           CX2              0.07832     0.05064     0.08181    -0.00858     0.02115
           CY2             -0.00041     0.08357    -0.03875     0.08511    -0.01097
           CZ2             -0.00002    -0.00149    -0.02863     0.00319     0.12254
           O2X3            -0.02068     0.05375     0.13239     0.02350     0.04587
           O2Y3            -0.00025     0.02754     0.00987     0.16456    -0.01401
           O2Z3             0.00010    -0.04317     0.00754     0.06229     0.12028
           H1X4             0.05822     0.01040     0.09289     0.05403     0.04387
           H1Y4            -0.00013    -0.01334     0.04535     0.22253    -0.01623
           H1Z4             0.00001    -0.01365    -0.01808     0.02044     0.12188
           O3X5            -0.02586     0.10982     0.13392    -0.05157     0.02294
           O3Y5            -0.00057     0.14164    -0.08914     0.00279    -0.00781
           O3Z5             0.00009    -0.04029     0.00504     0.05821     0.12043
           H2X6             0.04940     0.10590     0.09550    -0.07382     0.00481
           H2Y6            -0.00068     0.18098    -0.12328    -0.05300    -0.00568
           H2Z6            -0.00000    -0.00874    -0.02234     0.01348     0.12215

                                  6
 Wavenumbers [cm-1]            0.00
 Intensities [km/mol]          0.00
 Intensities [relative]        0.00
           O1X1            -0.00010
           O1Y1            -0.00591
           O1Z1             0.02312
           CX2              0.01354
           CY2             -0.00506
           CZ2             -0.01065
           O2X3             0.17133
           O2Y3            -0.03512
           O2Z3            -0.03302
           H1X4             0.26955
           H1Y4            -0.05705
           H1Z4            -0.01718
           O3X5            -0.12683
           O3Y5             0.02609
           O3Z5            -0.03147
           H2X6            -0.23828
           H2Y6             0.04719
           H2Z6            -0.01455


 Frequencies dumped to record   5400.2

 Zero point energy:  0.03979336 [H]     8733.63 [1/CM]      104.48 [KJ/MOL]
 Frequency information read from record  5400.2

 Recomputing wavefunction at initial geometry


 **********************************************************************************************************************************
 DATASETS  * FILE   NREC   LENGTH (MB)   RECORD NAMES
              1      18       28.71       500      610      700      900      950      970     1000      129      960     1100   
                                          VAR    BASINP    GEOM    SYMINP    ZMAT    AOBASIS   BASIS     P2S    ABASIS      S 
                                         1400     1410     1200     1210     1080     1600     1650     1700   
                                           T        V       H0       H01     AOSYM     SMH    MOLCAS    OPER   

              2       9       11.98       500      610      700     1000      520     2100     5300     5450     5400   
                                          VAR    BASINP    GEOM     BASIS   MCVARS     RHF     HESS     NMOD     FREQ   

 PROGRAMS   *        TOTAL      FREQ      OPTG    HF-SCF       INT      FILE
 CPU TIMES  *        11.64      8.50      2.61      0.05      0.29      0.00
 REAL TIME  *        12.93 SEC
 DISK USED  *        75.37 MB (local),      378.99 MB (total)
 SF USED    *         0.01 MB
 GA USED    *         0.00 MB       (max)       0.00 MB       (current)
 **********************************************************************************************************************************

 Dump information in style MOLDEN to molden.dat                                                                      

 Molecular orbitals read from record     2100.2  Type=RHF/CANONICAL  
 Occupation numbers read from record     2100.2  Type=RHF/RHF  
 Orbital energies read from record       2100.2  Type=RHF/CANONICAL  
 Redundancy group numbers read from rec  2100.2  Type=RHF/RHF  

 DUMP ORBITAL  1.1 AS ORBITAL    1  occ=    2.0000  eig=  -20.6245  GROUP=   2
 DUMP ORBITAL  2.1 AS ORBITAL    2  occ=    2.0000  eig=  -20.6245  GROUP=   2
 DUMP ORBITAL  3.1 AS ORBITAL    3  occ=    2.0000  eig=  -20.5490  GROUP=   2
 DUMP ORBITAL  4.1 AS ORBITAL    4  occ=    2.0000  eig=  -11.4424  GROUP=   2
 DUMP ORBITAL  5.1 AS ORBITAL    5  occ=    2.0000  eig=   -1.5356  GROUP=   2
 DUMP ORBITAL  6.1 AS ORBITAL    6  occ=    2.0000  eig=   -1.4233  GROUP=   2
 DUMP ORBITAL  7.1 AS ORBITAL    7  occ=    2.0000  eig=   -1.3820  GROUP=   2
 DUMP ORBITAL  8.1 AS ORBITAL    8  occ=    2.0000  eig=   -0.9122  GROUP=   2
 DUMP ORBITAL  9.1 AS ORBITAL    9  occ=    2.0000  eig=   -0.7559  GROUP=   2
 DUMP ORBITAL 10.1 AS ORBITAL   10  occ=    2.0000  eig=   -0.7275  GROUP=   2
 DUMP ORBITAL  1.2 AS ORBITAL   11  occ=    2.0000  eig=   -0.6929  GROUP=   2
 DUMP ORBITAL 11.1 AS ORBITAL   12  occ=    2.0000  eig=   -0.6690  GROUP=   2
 DUMP ORBITAL 12.1 AS ORBITAL   13  occ=    2.0000  eig=   -0.6053  GROUP=   2
 DUMP ORBITAL  2.2 AS ORBITAL   14  occ=    2.0000  eig=   -0.5504  GROUP=   2
 DUMP ORBITAL  3.2 AS ORBITAL   15  occ=    2.0000  eig=   -0.4857  GROUP=   2
 DUMP ORBITAL 13.1 AS ORBITAL   16  occ=    2.0000  eig=   -0.4752  GROUP=   2

 Total charge:      32.000000
 Frequency information read from record  5400.2

 **********************************************************************************************************************************

 HF/cc-pVDZ energy=   -263.680027793523

    OPTG(HF-SCF)          HF-SCF
   -263.68002779   -263.67371262
 **********************************************************************************************************************************
 Molpro calculation terminated
