[Molden Format]
[Molpro variables]
_NUMVAR=  1118.000000000000    
_AVOGAD= 0.6022140760000000E+24
_BOLTZ= 0.1380649000000000E-22
_CLIGHTSI=  299792458.0000000    
_JOULE= 0.4359744722207100E-17
_JPCAL=  4.184000000000000    
_PLANCK= 0.6626070150000000E-33
_BOHR= 0.5291772109030000E-10
_ECHARG= 0.1602176634000000E-18
_ENULL= 0.8854187812800001E-11
_MU= 0.1660539066600000E-26
_EMASS= 0.9109383701500001E-30
_AMU2AU=  1822.888486217313    
_CLIGHT=  29979245800.00000    
_EV= 0.3674932217565494E-01
_KJOULE= 0.3808798847133432E-03
_KJOULE/MOL= 0.3808798847133432E-03
_CM= 0.4556335252912009E-05
_CM-1= 0.4556335252912009E-05
_DEB2SI= 0.3335640951981520E-29
_KCAL= 0.1593601437640628E-02
_KCAL/MOL= 0.1593601437640628E-02
_KELVIN= 0.3166811563455608E-05
_HERTZ= 0.1519829846057038E-15
_HZ= 0.1519829846057038E-15
_TOA= 0.5291772109030000    
_TOANG= 0.5291772109030000    
_TORAD= 0.1745329251994330E-01
_TOCM=  219474.6313631965    
_TODEBYE=  2.541746473194078    
_TOE= 0.4803204712570263E-09
_TOEV=  27.21138624598803    
_TOHERTZ=  6579683920501656.    
_TOHZ=  6579683920501656.    
_TOK=  315775.0248040668    
_TOKCAL=  627.5094740630558    
_TOKELVIN=  315775.0248040668    
_TOKJ=  2625.499639479825    
_TOKJOULE=  2625.499639479825    
_TOKG= 0.1660539066600000E-26
_ANG=  1.889726124625770    
_ANGSTROM=  1.889726124625770    
_RPAREF=  0.000000000000000    
_RPADISS=  0.000000000000000    
_IGNORE_UNDEF=  2.000000000000000    
_STRICTCHECK=  0.000000000000000    
!SEWARD=  0.000000000000000    
!MULTI=  0.000000000000000    
!DFMULTI=  0.000000000000000    
!NUMHESS=  0.000000000000000    
_SEW_ONEEL=  0.000000000000000    
_CPPDONE=FALSE
_DKROLL_DONE=  0.000000000000000    
_FNUC_DONE=  0.000000000000000    
_FOCKDONE=TRUE
_GRADONE=FALSE
_HESSDONE=TRUE
_INTDONE=TRUE
_SCFDONE=TRUE
_MODUL_BLOCK=FALSE
_MODUL_SLATER=TRUE
_MODUL_MRCC=FALSE
_MODUL_NBO6=FALSE
_MODUL_NECI=FALSE
_MODUL_AIMS=TRUE
_MODUL_HDF5=FALSE
_MODUL_GECCO=FALSE
_ISWINDOWS=FALSE
_MRCC_EXEC=
_FITC_AO_SAVED=FALSE
_FITC_MO_SAVED=FALSE
_LSTYP=SEWARD
_INTYP=INTS
_GEOMTYP=XYZ
_GRADTYP=ALASKA
_DIRECT=FALSE
_DKHO= -1.000000000000000    
_FNUC=  0.000000000000000    
_SYNCM=  0.000000000000000    
_BASIS=6-311G(D,P)
_ZCENTRE=MASS
_ZORIENT=  1.000000000000000    
_NELEC=  42.00000000000000    
!SPIN=  0.000000000000000    
_OPTCONV= 0.1013023104156686E-01
_QSDSTEP=  0.000000000000000    
_QSDIRC=  0.000000000000000    
_PROGRAM=FREQ
_CPUSTEP=  48.97000000000000    
_SYSSTEP=  1.800000000000000    
_WALLSTEP=  50.78000000000000    
!DFSCF=  0.000000000000000    
!SCSGRD=  0.000000000000000    
_NCEN=  13.00000000000000    
_CPUTOT=  146.5200000000000    
_DFTEXFAC=  1.000000000000000    
_DMX= 0.4300175268676709E-02
_DMY= 0.4670917336936782    
_DMZ=  1.238532609677919    
_DMX_SCF= 0.4300175268676709E-02
_DMY_SCF= 0.4670917336936782    
_DMZ_SCF=  1.238532609677919    
_FREQUENCIES= 0.2926694325883310E-04
_HOMO=  21.10000000000000    
_EHOMO=-0.3794824871860754    
_LUMO=  22.10000000000000    
_ELUMO= 0.1333028095185126    
_ENERGY= -268.0194824939634    
_ENERGY_METHOD=HF
_ENERGY_BASIS=6-311G(D,P)
_GEOMETRY_METHOD=HF
_GEOMETRY_BASIS=6-311G(D,P)
_ENUC=  178.5524252732395    
_GRADENERG= -268.0194821118422    
_GRADEXFAC=  9999.000000000000    
_GRADMETHOD=  1.000000000000000    
_NMRMETHOD=  0.000000000000000    
_NMRMAGNET=  0.000000000000000    
_VIRIAL=-0.1793235073781087E-03
!GRID_FREEZE= -1.000000000000000    
!NEESE_INDEX=  0.000000000000000    
_ITERATIONS=  13.00000000000000    
_LASTNELEC=  42.00000000000000    
_LASTSPIN=  0.000000000000000    
_LASTSYM=  1.000000000000000    
_MPP_PROG=  1.000000000000000    
_MSNSTATES=  0.000000000000000    
_RS2PHASE=  0.000000000000000    
_NPROC_MPP=  6.000000000000000    
_NPROC_SMP=  6.000000000000000    
_NUMSTEP=  0.000000000000000    
_OPTCONVMX= 0.5036805054224384E-02
_OPTCONVRMS= 0.1763446874005607E-02
_OPTGRAD= 0.1566108280714918E-03
_OPTGRADMX= 0.9445228255552091E-04
_OPTGRADRMS= 0.2726244584796608E-04
!GMAXLAST= 0.9445228255552091E-04
!DMAXLAST= 0.5036805054224384E-02
!DELAST= 0.1689891064415860E-05
_OPTSTEP=  27.00000000000000    
_ORBITAL=  2100.200000000000    
_PI=  3.141592653589793    
_SEIG_MIN= 0.2396400759873810E-02
_SEWPROP=TRUE
_STATUS=  1.000000000000000    
_SYSTOT=  7.310000000000000    
_VERSION=  2024001.000000000    
_WALLTOT=  153.8500000000000    
_ZPE= 0.1169659505836066    
_DATE=01-Oct-24
_LASTORB=0
_OUTPUT=/home/lme/decomposing-vibrations/test_calculations/hydrogen_bonded_clusters/C3H6O_H2O_cluster/cyclopropanol_water.out
_PGROUP=C1
_TIME=21:28:18
_LIBMOL=/usr/local/molpro/molpro_2024.1.0_sockets/lib/
_VIGRDC=  0.000000000000000    
!VIBCNT=  0.000000000000000    
!SURFREC=  0.000000000000000    
!XSURFREC=  0.000000000000000    
!XPOLYREC=  0.000000000000000    
!ROTREC=  0.000000000000000    
!POLYREC=  0.000000000000000    
!DIPREC=  0.000000000000000    
!DIP4DREC=  0.000000000000000    
!DIPROT=  0.000000000000000    
!DIP4DROT=  0.000000000000000    
!PTREC=  0.000000000000000    
!PT4DREC=  0.000000000000000    
!VSCFREC=  0.000000000000000    
!VCIREC=  0.000000000000000    
!PVCIREC=  0.000000000000000    
!VMP2REC=  0.000000000000000    
!VMCSCFREC=  0.000000000000000    
!VMRCIREC=  0.000000000000000    
!VIBSTATEREC=  0.000000000000000    
!VIBSTATECNT=  0.000000000000000    
!VIBINFO=  0.000000000000000    
!GAREC=  0.000000000000000    
!SCFORB=  21002.00000000000    
!DEFCORE=  5.000000000000000    
!SCORE=  0.000000000000000    
!NEWMOL=  0.000000000000000    
!NEWSYM=  0.000000000000000    
_SLFILES=slscratch
_NGSSTO=  9.000000000000000    
_SIN=SIN
_COS=COS
_TAN=TAN
_ACOS=ACOS
_ASIN=ASIN
_ATAN=ATAN
_COSH=COSH
_SINH=SINH
_TANH=TANH
_ABS=ABS
_MOD=MOD
_ERF=ERF
_REFC=REFC
_ERFC=ERFC
_HYPOT=HYPOT
_J0=J0
_J1=J1
_JN=JN
_GAMMA=GAMMA
_LGAMMA=LGAMMA
_Y0=Y0
_Y1=Y1
_YN=YN
_EXP=EXP
_LOG=LOG
_LOG10=LOG10
_SQRT=SQRT
_INT=INT
_NINT=NINT
_MAX=MAX
_MIN=MIN
_COSMO=  0.000000000000000    
_COSMOIT=  0.000000000000000    
_COSMOES=  0.000000000000000    
_COSMOEDS=  0.000000000000000    
_COSMOEC=  0.000000000000000    
_COSMOEDCORR=  0.000000000000000    
_FEPSI=  1.000000000000000    
_SL_IsMM=  0.000000000000000    
_SL_NSYM=  1.000000000000000    
_SL_System_BitSw=  0.000000000000000    
_SL_Unique_atoms=  0.000000000000000    
_SL_GRAD=  0.000000000000000    
_SL_MAXUPD_Hess=  5.000000000000000    
_SL_N_PRINT_COD=  5.000000000000000    
_SL_PRINT_CODES=  0.000000000000000    
_SL_BasType=  0.000000000000000    
_SL_Energy_Pred=  0.000000000000000    
_SL_New_Coords=  0.000000000000000    
_SL_Total_Nuclea=  0.000000000000000    
_SL_Highest_Mltp=  0.000000000000000    
_SL_Ref_Geom=  0.000000000000000    
_SL_Symmetry_ope=  1.000000000000000    
_SL_agrad=  0.000000000000000    
_SL_GrdMax=  0.000000000000000    
_SL_GrdNorm=  0.000000000000000    
_SL_GrdRMS=  0.000000000000000    
_SL_Hss_Q=  0.000000000000000    
_SL_Hss_X=  0.000000000000000    
_SL_BMxOld=  0.000000000000000    
_SL_KtB=  0.000000000000000    
_SL_TROld=  0.000000000000000    
_SL_No_of_Intern=  0.000000000000000    
_SL_Hess=  0.000000000000000    
_SL_K=  0.000000000000000    
!LATTICE= -1.000000000000000    
!NEWLATTICE=  0.000000000000000    
!LATGRAD_VAR=FALSE
!SEW_LATTICE=  1.000000000000000    
!AIC_ONEEL=  0.000000000000000    
!LOCAL=  0.000000000000000    
!SAVEDOM= -1.000000000000000    
!RESTDOM= -1.000000000000000    
!SAVEDOM_HF= -1.000000000000000    
!RESTDOM_HF= -1.000000000000000    
!HESSREC=  5300.200000000000    
!FREQREC=  5400.200000000000    
!NMODREC=  5450.200000000000    
!GTASKS=  0.000000000000000    
!HTASKS=  0.000000000000000    
!SAVEDOM_EOM= -1.000000000000000    
!RESTDOM_EOM= -1.000000000000000    
!GRADSTATE= -1.000000000000000    
!DEBUG=  0.000000000000000    
!CFIT_CPHF=  0.000000000000000    
!RDOMAUX_CPHF=  0.000000000000000    
!THRAO_CPHF= 0.1000000000000000E-11
!THRMO_CPHF= 0.1000000000000000E-11
!THROV_CPHF= 0.1000000000000000E-13
!THRSW_CPHF= 0.1000000000000000E-11
!THRPROD_CPHF= 0.1000000000000000E-11
!THRAOPR_CPHF= 0.1000000000000000E-11
!CFIT_SCFGRD=  0.000000000000000    
!RDOMAUX_SCFGRD=  0.000000000000000    
!THRAO_SCFGRD= 0.1000000000000000E-11
!THRMO_SCFGRD= 0.1000000000000000E-11
!THROV_SCFGRD= 0.1000000000000000E-13
!THRSW_SCFGRD= 0.1000000000000000E-11
!THRPROD_SCFGRD= 0.1000000000000000E-11
!THRAOPR_SCFGRD= 0.1000000000000000E-11
!LOCFIT_SCF=  0.000000000000000    
!LOCFIT_MP2=  0.000000000000000    
_RIDOM=  0.000000000000000    
!CC2_METHOD=  0.000000000000000    
_BASIS2006=FALSE
_SVDDEL= -1.000000000000000    
_SVDDELA= -1.000000000000000    
_SVDDELP= -1.000000000000000    
_SVDDELF= -1.000000000000000    
_SVDDELS= -1.000000000000000    
_SVDDEL_ABS= -1.000000000000000    
_SVDDELA_ABS= -1.000000000000000    
_SVDDELP_ABS= -1.000000000000000    
_SVDDELF_ABS= -1.000000000000000    
_SVDDELS_ABS= -1.000000000000000    
_MAXBASIS=  0.000000000000000    
!OPT_CONICAL=  0.000000000000000    
!CLEARSP_JGRID=  0.000000000000000    
_GRDHYBR=  0.000000000000000    
_STATEGRAD=  1.000000000000000    
_4EXT_NDISKS=  1.000000000000000    
!EMBEDFLAG=  1.000000000000000    
!EMBED=FALSE
!EMBED_F12=FALSE
!EMBEDNUC=  0.000000000000000    
_EMBEDENERGY=  0.000000000000000    
!EMBED_DFC=FALSE
!NUM_VOIDS=  0.000000000000000    
_IBODY=  0.000000000000000    
_EMBE_CORR=  0.000000000000000    
!EMBED_PROJ=FALSE
!EMB_PROJ_ZMU=  1000000.000000000    
!CORRECTION_HF=  0.000000000000000    
!EMBED_AORB=  0.000000000000000    
!EMBED_NACORR=  0.000000000000000    
!EMBED_MP2=FALSE
!EMBED_TRUNC_PERTURBATION=FALSE
!EMBED_FROZEN=  0.000000000000000    
!EMBED_ACTIVE=  0.000000000000000    
_CHANGE_BASIS=FALSE
_RESTORE_BASIS=FALSE
_FIX_EMBED_GUESS=FALSE
_EMBED_SCF=FALSE
_NEOBAS=FALSE
_NEOOVE=FALSE
_PRINEO=FALSE
_HUZINAGA_T=FALSE
_HUZINAGA_F=FALSE
_HUZINAGA=FALSE
_HUZINAGA_CORRECT=FALSE
!FASTLATGRAD=  1.000000000000000    
!FASTVLAMBDA= -1.000000000000000    
!IFORCE= -1.000000000000000    
!USESYM= -1.000000000000000    
_SINDEX=  0.000000000000000    
_AVDOM_OSV=  0.000000000000000    
_AVDOM_PNO=  0.000000000000000    
_AVDOM_PNOCC=  0.000000000000000    
_AVDOM_TNO=  0.000000000000000    
_AVDOM_TNOIT=  0.000000000000000    
_AVDOM_PAO=  0.000000000000000    
_AVDOM_LMO=  0.000000000000000    
_CC2OSV_FLAG=  0.000000000000000    
_EOMCCSD_CONV=FALSE
_TMADC2_FLAG=FALSE
_PROPADC2_FLAG=FALSE
_LEN_VirQ=  0.000000000000000    
_GRDCC2LR_FLAG=FALSE
_GRDADC2_FLAG=FALSE
_RO_VGLOBAL=  0.000000000000000    
_OPT=FALSE
_FREQ=FALSE
_HESS=FALSE
_CMRCC_callName=EMPTY
_CMRCC_callCount=  0.000000000000000    
_GECCO_CIROOT=  1.000000000000000    
_SYM_CATION=  1.000000000000000    
_MON_A=FALSE
_MON_B=FALSE
_MAXGEOM=  100.0000000000000    
!MAXGEOM=  100.0000000000000    
_NCORE=  0.000000000000000    
_NLARGECORE=  0.000000000000000    
GX1=-0.5701124538438806E-01
GY1=-0.2205541354357979    
GZ1= -2.109178481752602    
GX2=-0.1588580044233688    
GY2=  1.052776402640712    
GZ2= -1.302640743591059    
GX3= 0.4609412007136292    
GY3=-0.1769819936765876    
GZ3=-0.7189035224128512    
GX4=-0.9631587328902151    
GY4=-0.7787234699444509    
GZ4= -2.260692898137288    
GX5= 0.6440891902858760    
GY5=-0.2579527716452655    
GZ5= -2.924252037197401    
GX6= -1.134098602761394    
GY6=  1.324756916633068    
GZ6=-0.9394530949833778    
GX7= 0.4764523216641612    
GY7=  1.880264716395832    
GZ7= -1.567060128567921    
GX8=  1.531866140047548    
GY8=-0.1758058621405807    
GZ8=-0.5864521440325856    
GX9=-0.2387977740238530    
GY9=-0.9014435221991195    
GZ9= 0.2228697857568600    
GX10=-0.1634440210153123    
GY10=-0.4719008566675776    
GZ10=  1.061588657723588    
GX11= 0.5044992793464072E-01
GY11= 0.2867387875521415    
GZ11=  2.899978218580971    
GX12=-0.6585670448124804    
GY12= 0.7672616891470977    
GZ12=  3.291054969892215    
GX13= 0.3380471519032042    
GY13=-0.3339265816949008    
GZ13=  3.547225051027656    
CX1=-0.1077356398003285    
CY1=-0.4167869116272777    
CZ1= -3.985769678466411    
CX2=-0.3001981210647562    
CY2=  1.989459071459693    
CZ2= -2.461634244165964    
CX3= 0.8710526289049159    
CY3=-0.3344474970390004    
CZ3= -1.358530767389053    
HX4= -1.820106219704094    
HY4= -1.471574085013259    
HZ4= -4.272090429365979    
HX5=  1.217152169472279    
HY5=-0.4874600914976839    
HZ5= -5.526035469682058    
HX6= -2.143135757539789    
HY6=  2.503427754140193    
HZ6= -1.775309056450624    
HX7= 0.9003643993873662    
HY7=  3.553185355785268    
HZ7= -2.961314463814219    
HX8=  2.894807464277489    
HY8=-0.3322249305494119    
HZ8= -1.108233937421172    
OX9=-0.4512623920753562    
OY9= -1.703481373774347    
OZ9= 0.4211628565344864    
HX10=-0.3088644364265190    
HY10=-0.8917633770780025    
HZ10=  2.006111820106670    
OX11= 0.9533654680357799E-01
OY11= 0.5418577777808005    
OZ11=  5.480164600498163    
HX12= -1.244511349399735    
HY12=  1.449914458405767    
HZ12=  6.219192554184796    
HX13= 0.6388165343068212    
HY13=-0.6310297851358355    
HZ13=  6.703283848853942    
[Atoms] Angs
C     1    6        -0.0570112454       -0.2205541354       -2.1091784818
C     2    6        -0.1588580044        1.0527764026       -1.3026407436
C     3    6         0.4609412007       -0.1769819937       -0.7189035224
H     4    1        -0.9631587329       -0.7787234699       -2.2606928981
H     5    1         0.6440891903       -0.2579527716       -2.9242520372
H     6    1        -1.1340986028        1.3247569166       -0.9394530950
H     7    1         0.4764523217        1.8802647164       -1.5670601286
H     8    1         1.5318661400       -0.1758058621       -0.5864521440
O     9    8        -0.2387977740       -0.9014435222        0.2228697858
H    10    1        -0.1634440210       -0.4719008567        1.0615886577
O    11    8         0.0504499279        0.2867387876        2.8999782186
H    12    1        -0.6585670448        0.7672616891        3.2910549699
H    13    1         0.3380471519       -0.3339265817        3.5472250510
[GTO]
   1 0
 s    6  1.00
  0.4563240000D+04  0.1966650249D-02
  0.6820240000D+03  0.1523060193D-01
  0.1549730000D+03  0.7612690966D-01
  0.4445530000D+02  0.2608010331D+00
  0.1302900000D+02  0.6164620782D+00
  0.1827730000D+01  0.2210060280D+00
 s    3  1.00
  0.2096420000D+02  0.1146600807D+00
  0.4803310000D+01  0.9199996477D+00
  0.1459330000D+01 -0.3030682134D-02
 s    1  1.00
  0.4834560000D+00  0.1000000000D+01
 s    1  1.00
  0.1455850000D+00  0.1000000000D+01
 p    3  1.00
  0.2096420000D+02  0.4024869267D-01
  0.4803310000D+01  0.2375939567D+00
  0.1459330000D+01  0.8158538515D+00
 p    1  1.00
  0.4834560000D+00  0.1000000000D+01
 p    1  1.00
  0.1455850000D+00  0.1000000000D+01
 d    1  1.00
  0.6260000000D+00  0.1000000000D+01
  
   2 0
 s    6  1.00
  0.4563240000D+04  0.1966650249D-02
  0.6820240000D+03  0.1523060193D-01
  0.1549730000D+03  0.7612690966D-01
  0.4445530000D+02  0.2608010331D+00
  0.1302900000D+02  0.6164620782D+00
  0.1827730000D+01  0.2210060280D+00
 s    3  1.00
  0.2096420000D+02  0.1146600807D+00
  0.4803310000D+01  0.9199996477D+00
  0.1459330000D+01 -0.3030682134D-02
 s    1  1.00
  0.4834560000D+00  0.1000000000D+01
 s    1  1.00
  0.1455850000D+00  0.1000000000D+01
 p    3  1.00
  0.2096420000D+02  0.4024869267D-01
  0.4803310000D+01  0.2375939567D+00
  0.1459330000D+01  0.8158538515D+00
 p    1  1.00
  0.4834560000D+00  0.1000000000D+01
 p    1  1.00
  0.1455850000D+00  0.1000000000D+01
 d    1  1.00
  0.6260000000D+00  0.1000000000D+01
  
   3 0
 s    6  1.00
  0.4563240000D+04  0.1966650249D-02
  0.6820240000D+03  0.1523060193D-01
  0.1549730000D+03  0.7612690966D-01
  0.4445530000D+02  0.2608010331D+00
  0.1302900000D+02  0.6164620782D+00
  0.1827730000D+01  0.2210060280D+00
 s    3  1.00
  0.2096420000D+02  0.1146600807D+00
  0.4803310000D+01  0.9199996477D+00
  0.1459330000D+01 -0.3030682134D-02
 s    1  1.00
  0.4834560000D+00  0.1000000000D+01
 s    1  1.00
  0.1455850000D+00  0.1000000000D+01
 p    3  1.00
  0.2096420000D+02  0.4024869267D-01
  0.4803310000D+01  0.2375939567D+00
  0.1459330000D+01  0.8158538515D+00
 p    1  1.00
  0.4834560000D+00  0.1000000000D+01
 p    1  1.00
  0.1455850000D+00  0.1000000000D+01
 d    1  1.00
  0.6260000000D+00  0.1000000000D+01
  
   4 0
 s    3  1.00
  0.3386500000D+02  0.2549381454D-01
  0.5094790000D+01  0.1903731086D+00
  0.1158790000D+01  0.8521614860D+00
 s    1  1.00
  0.3258400000D+00  0.1000000000D+01
 s    1  1.00
  0.1027410000D+00  0.1000000000D+01
 p    1  1.00
  0.7500000000D+00  0.1000000000D+01
  
   5 0
 s    3  1.00
  0.3386500000D+02  0.2549381454D-01
  0.5094790000D+01  0.1903731086D+00
  0.1158790000D+01  0.8521614860D+00
 s    1  1.00
  0.3258400000D+00  0.1000000000D+01
 s    1  1.00
  0.1027410000D+00  0.1000000000D+01
 p    1  1.00
  0.7500000000D+00  0.1000000000D+01
  
   6 0
 s    3  1.00
  0.3386500000D+02  0.2549381454D-01
  0.5094790000D+01  0.1903731086D+00
  0.1158790000D+01  0.8521614860D+00
 s    1  1.00
  0.3258400000D+00  0.1000000000D+01
 s    1  1.00
  0.1027410000D+00  0.1000000000D+01
 p    1  1.00
  0.7500000000D+00  0.1000000000D+01
  
   7 0
 s    3  1.00
  0.3386500000D+02  0.2549381454D-01
  0.5094790000D+01  0.1903731086D+00
  0.1158790000D+01  0.8521614860D+00
 s    1  1.00
  0.3258400000D+00  0.1000000000D+01
 s    1  1.00
  0.1027410000D+00  0.1000000000D+01
 p    1  1.00
  0.7500000000D+00  0.1000000000D+01
  
   8 0
 s    3  1.00
  0.3386500000D+02  0.2549381454D-01
  0.5094790000D+01  0.1903731086D+00
  0.1158790000D+01  0.8521614860D+00
 s    1  1.00
  0.3258400000D+00  0.1000000000D+01
 s    1  1.00
  0.1027410000D+00  0.1000000000D+01
 p    1  1.00
  0.7500000000D+00  0.1000000000D+01
  
   9 0
 s    6  1.00
  0.8588500000D+04  0.1895150083D-02
  0.1297230000D+04  0.1438590063D-01
  0.2992960000D+03  0.7073200310D-01
  0.8737710000D+02  0.2400010105D+00
  0.2567890000D+02  0.5947970261D+00
  0.3740040000D+01  0.2808020123D+00
 s    3  1.00
  0.4211750000D+02  0.1138890124D+00
  0.9628370000D+01  0.9208111006D+00
  0.2853320000D+01 -0.3274470358D-02
 s    1  1.00
  0.9056610000D+00  0.1000000000D+01
 s    1  1.00
  0.2556110000D+00  0.1000000000D+01
 p    3  1.00
  0.4211750000D+02  0.3651139738D-01
  0.9628370000D+01  0.2371529830D+00
  0.2853320000D+01  0.8197019412D+00
 p    1  1.00
  0.9056610000D+00  0.1000000000D+01
 p    1  1.00
  0.2556110000D+00  0.1000000000D+01
 d    1  1.00
  0.1292000000D+01  0.1000000000D+01
  
  10 0
 s    3  1.00
  0.3386500000D+02  0.2549381454D-01
  0.5094790000D+01  0.1903731086D+00
  0.1158790000D+01  0.8521614860D+00
 s    1  1.00
  0.3258400000D+00  0.1000000000D+01
 s    1  1.00
  0.1027410000D+00  0.1000000000D+01
 p    1  1.00
  0.7500000000D+00  0.1000000000D+01
  
  11 0
 s    6  1.00
  0.8588500000D+04  0.1895150083D-02
  0.1297230000D+04  0.1438590063D-01
  0.2992960000D+03  0.7073200310D-01
  0.8737710000D+02  0.2400010105D+00
  0.2567890000D+02  0.5947970261D+00
  0.3740040000D+01  0.2808020123D+00
 s    3  1.00
  0.4211750000D+02  0.1138890124D+00
  0.9628370000D+01  0.9208111006D+00
  0.2853320000D+01 -0.3274470358D-02
 s    1  1.00
  0.9056610000D+00  0.1000000000D+01
 s    1  1.00
  0.2556110000D+00  0.1000000000D+01
 p    3  1.00
  0.4211750000D+02  0.3651139738D-01
  0.9628370000D+01  0.2371529830D+00
  0.2853320000D+01  0.8197019412D+00
 p    1  1.00
  0.9056610000D+00  0.1000000000D+01
 p    1  1.00
  0.2556110000D+00  0.1000000000D+01
 d    1  1.00
  0.1292000000D+01  0.1000000000D+01
  
  12 0
 s    3  1.00
  0.3386500000D+02  0.2549381454D-01
  0.5094790000D+01  0.1903731086D+00
  0.1158790000D+01  0.8521614860D+00
 s    1  1.00
  0.3258400000D+00  0.1000000000D+01
 s    1  1.00
  0.1027410000D+00  0.1000000000D+01
 p    1  1.00
  0.7500000000D+00  0.1000000000D+01
  
  13 0
 s    3  1.00
  0.3386500000D+02  0.2549381454D-01
  0.5094790000D+01  0.1903731086D+00
  0.1158790000D+01  0.8521614860D+00
 s    1  1.00
  0.3258400000D+00  0.1000000000D+01
 s    1  1.00
  0.1027410000D+00  0.1000000000D+01
 p    1  1.00
  0.7500000000D+00  0.1000000000D+01


[MO]
 Sym=      1.1
 Ene=     -20.5739
 Spin= Alpha
 Occup=    2.000000
1 0.000000331259158
2 -0.000001610419264
3 0.000008801196783
4 0.000003350769990
5 -0.000001165977934
6 0.000000550938177
7 -0.000003632944600
8 0.000006781113897
9 -0.000001262157188
10 0.000020121011199
11 -0.000022516570062
12 -0.000023578518024
13 0.000002610933794
14 -0.000006289012229
15 -0.000000909968589
16 0.000007198980817
17 -0.000001633300146
18 0.000001166395359
19 -0.000003389611471
20 0.000000102317620
21 -0.000000685892801
22 0.000000488946306
23 0.000058394604248
24 -0.000002121989166
25 0.000003311148538
26 -0.000003293053527
27 0.000010537041108
28 -0.000016370263296
29 0.000013050769278
30 -0.000052624796449
31 -0.000018344770022
32 0.000005683060091
33 -0.000004868473825
34 0.000002365385716
35 0.000002503088109
36 0.000000541815167
37 -0.000000639475005
38 -0.000003542941966
39 0.000000458851734
40 -0.000002657062162
41 0.000029275610574
42 -0.000202999754770
43 0.000000698070244
44 0.000000560520433
45 -0.000006471064797
46 -0.000000657819272
47 0.000003164431867
48 0.000022453513547
49 0.000139305187870
50 0.000060255961390
51 -0.000097084448798
52 0.000002443070173
53 -0.000001862509207
54 -0.000000580560967
55 -0.000003046886685
56 -0.000007088107397
57 0.000004220517929
58 0.000000863030210
59 0.000004755699714
60 -0.000017449948371
61 0.000002682092682
62 0.000001746954436
63 0.000002777832411
64 0.000000680395210
65 0.000004950193031
66 0.000002569040647
67 -0.000001625942839
68 0.000002441851662
69 0.000000075969355
70 -0.000001529647312
71 0.000003122256428
72 -0.000051756603579
73 0.000002140695479
74 -0.000000250127429
75 0.000000135448908
76 -0.000001090927114
77 0.000010992807451
78 0.000013420738850
79 -0.000001037155058
80 -0.000001308916095
81 0.000000535201823
82 0.000001049764295
83 -0.000006393841876
84 -0.000043599883969
85 -0.000000929612283
86 -0.000004391106088
87 0.000006292238441
88 -0.000025736794675
89 -0.000027339852735
90 0.000039039068541
91 -0.000063768315948
92 0.000003110922098
93 -0.000000737324885
94 -0.000014747645713
95 -0.000011442786956
96 0.000002628182067
97 0.000056887037206
98 0.000036346697652
99 0.000001990490428
100 -0.000206507708955
101 -0.000000763823233
102 0.000000757670934
103 0.000000006152299
104 -0.000000515695816
105 -0.000001406707634
106 -0.000000400837962
107 -0.000030942288422
108 0.000137702872561
109 0.000278104401626
110 0.000005976389218
111 0.000012115794482
112 0.000041991346444
113 0.55142788068739
114 0.47166859549811
115 0.005620864458748
116 -0.000540669495485
117 -0.000669900949798
118 -0.000249512471444
119 0.001529523699136
120 0.000226540922468
121 0.000068780141200
122 -0.000579995705958
123 -0.000023767030621
124 0.000043366173631
125 0.000203680828765
126 0.000006221828725
127 -0.000000632331649
128 -0.000005589497077
129 0.000108203235007
130 0.000019016596399
131 0.000042800695935
132 0.000194921596330
133 0.000100387583900
134 0.000054926157137
135 0.000036738636609
136 -0.000055276723536
137 -0.000015144854395
138 0.000192896322410
139 0.000122409740773
140 0.000042230431353
141 -0.000044727034995
142 0.000038114858004
143 -0.000039992871984
 Sym=      2.1
 Ene=     -20.5215
 Spin= Alpha
 Occup=    2.000000
1 0.000000125459252
2 0.000002483068532
3 0.000000532415137
4 -0.000480528254409
5 0.000000864233052
6 0.000000573708631
7 0.000001969482858
8 -0.000013832848907
9 0.000007127236924
10 -0.000016998968169
11 -0.000085350880650
12 0.000034685686709
13 -0.000094143038461
14 0.000001033325427
15 0.000002328399897
16 -0.000003361725324
17 -0.000007311938658
18 0.000021355467077
19 0.000005720067885
20 0.000000247439496
21 0.000004078238986
22 -0.000023028122233
23 -0.000097491804103
24 -0.000004152762352
25 -0.000005977992446
26 0.000002598300836
27 0.000014892726439
28 0.000042257064712
29 -0.000030020499121
30 0.000200159717284
31 0.000063762452436
32 -0.000128381510669
33 0.000005454159644
34 0.000001805562465
35 -0.000007259722109
36 0.000002695248289
37 0.000013127484883
38 0.000008055892607
39 -0.000004396967732
40 -0.000031307572809
41 0.000055036791294
42 0.000792613124911
43 -0.000026305477444
44 -0.000028505830440
45 0.000012184255662
46 -0.000115131174747
47 -0.000109701156968
48 0.000229874612939
49 -0.000531482772395
50 -0.000229922532535
51 -0.000059201552184
52 -0.000033003836610
53 -0.000034083014218
54 0.000067086850829
55 0.000036252714059
56 -0.000086800870728
57 -0.000100965185120
58 0.000007381304364
59 -0.000022196309719
60 0.000041730174039
61 0.000001849749462
62 0.000000392156507
63 -0.000018412528814
64 -0.000011500152206
65 0.000116067648185
66 0.000006809629221
67 -0.000006836908088
68 -0.000006376816983
69 0.000027960679582
70 -0.000002114585656
71 0.000069558503891
72 0.000050909336373
73 0.000005178825907
74 0.000006235169301
75 -0.000008029863463
76 0.000006081475551
77 -0.000080828659450
78 -0.000026737405741
79 0.000004215982989
80 0.000013104775658
81 0.000004763445227
82 -0.000010298244716
83 0.000090392724822
84 0.000090108873472
85 -0.000015992670160
86 0.000027837608684
87 -0.000014669250419
88 0.55143465940158
89 0.47165269399295
90 0.005742691457759
91 -0.001078461716149
92 0.000860102762969
93 0.001425897421873
94 0.000221226194906
95 -0.000324468392320
96 -0.000514282169318
97 -0.000082790464476
98 -0.000018861296597
99 -0.000034349961879
100 0.000273187823311
101 0.000063186985529
102 0.000022778651849
103 -0.000085965637378
104 -0.000092630785147
105 0.000088696886637
106 0.000042260299640
107 0.000203558660746
108 0.000056212755503
109 0.000161115186566
110 0.000029389997189
111 0.000018527794320
112 -0.000078657241397
113 0.000026436615587
114 0.000021457553368
115 0.000011252960136
116 -0.000039405562105
117 -0.000000203163924
118 0.000001658361069
119 0.000007769715998
120 0.000002433967217
121 -0.000003389757154
122 -0.000021224557307
123 0.000005950606578
124 0.000015949664030
125 0.000062214922111
126 0.000000047402742
127 -0.000000192153641
128 0.000000144750899
129 0.000001558345304
130 -0.000000732198000
131 -0.000001514941796
132 -0.000003620248038
133 0.000017011511348
134 -0.000025835496484
135 -0.000000763055002
136 -0.000002427974108
137 -0.000008571804880
138 -0.000002253062903
139 0.000008292314884
140 -0.000024993390001
141 -0.000000183087574
142 -0.000003795993658
143 -0.000005712842759
 Sym=      3.1
 Ene=     -11.2612
 Spin= Alpha
 Occup=    2.000000
1 0.003786389742645
2 0.003084023853769
3 0.000264798280783
4 0.000465266706190
5 0.000066684281936
6 -0.000000366222799
7 0.000140302297004
8 0.000064225794166
9 -0.000103998496669
10 0.000174645339019
11 0.000168007240759
12 -0.000096284445677
13 0.000167476084700
14 -0.000037154168322
15 -0.000002067961695
16 0.000039222130017
17 -0.000033014941725
18 0.000035325400988
19 -0.000084383430440
20 0.003603522849815
21 0.002933890454883
22 0.000229427538795
23 0.000723872168539
24 0.000071953646892
25 -0.000111077209920
26 0.000062412894096
27 0.000058622983920
28 -0.000124438960565
29 0.000169028588620
30 0.000031053687833
31 -0.000280860224239
32 0.000203828955754
33 -0.000031272318123
34 -0.000023509447404
35 0.000054781765526
36 -0.000029021819501
37 0.000040975342531
38 -0.000067037213867
39 0.56341963528480
40 0.46650702956394
41 0.004254458315213
42 -0.001773168136503
43 -0.000793377599034
44 -0.000217516632641
45 0.000271919128930
46 0.000485062792285
47 0.000285991897795
48 -0.000396318939873
49 0.000275635696734
50 -0.000270427125507
51 0.000470508195107
52 0.000102984468224
53 -0.000095985148925
54 -0.000006999319299
55 -0.000105302151228
56 0.000197896785278
57 0.000019665156645
58 -0.000002807875122
59 -0.000003334420057
60 0.000009005934191
61 -0.000008407359311
62 0.000012029754181
63 0.000006020260761
64 0.000005802713235
65 -0.000050807660601
66 -0.000004023736763
67 0.000004301272439
68 0.000012306027889
69 0.000010905030626
70 0.000008018791013
71 -0.000120085214376
72 0.000004230509247
73 -0.000017803611245
74 0.000005867869752
75 -0.000006962133303
76 0.000001489504278
77 0.000003525202526
78 0.000048502210102
79 0.000000038175487
80 -0.000017980265126
81 -0.000003595735862
82 0.000335706515161
83 -0.000092578716485
84 0.000246003903458
85 0.000052258038605
86 0.000016505480365
87 -0.000020051818921
88 -0.000078827152657
89 -0.000139726638605
90 0.000340196337895
91 0.000194742973933
92 0.000065229665894
93 0.000071185161777
94 -0.000078216120335
95 0.000286825301042
96 0.000268996439814
97 -0.000396315647752
98 -0.000069087526831
99 0.000023810221919
100 -0.000219244679977
101 -0.000027753797501
102 0.000004181469874
103 0.000023572327627
104 0.000087864369392
105 -0.000123912144670
106 -0.000161332366080
107 -0.000018074153946
108 0.000206602367321
109 -0.000059174208938
110 0.000006064569746
111 -0.000037419178453
112 -0.000083463634114
113 -0.000000081986647
114 -0.000000216674123
115 0.000001226742523
116 0.000004362763500
117 -0.000000747671288
118 -0.000000589268342
119 -0.000000010855321
120 0.000001417992410
121 0.000000977178077
122 -0.000002128770604
123 -0.000009563918970
124 0.000004590631035
125 0.000008305689396
126 0.000001011047823
127 -0.000000090818195
128 -0.000000920229628
129 -0.000000108811956
130 -0.000001165697690
131 -0.000000091980577
132 -0.000000036183949
133 -0.000009727247001
134 0.000002424381818
135 -0.000002245962080
136 0.000001215666665
137 -0.000001025018523
138 -0.000001477938360
139 0.000005601234025
140 -0.000001475454558
141 0.000001205838476
142 -0.000000733343914
143 -0.000003836654038
 Sym=      4.1
 Ene=     -11.2063
 Spin= Alpha
 Occup=    2.000000
1 0.28757015697691
2 0.23810846215770
3 0.002543192790967
4 -0.000217609476520
5 0.000039929337414
6 0.000332940807794
7 0.000265151475534
8 -0.000070442483241
9 0.000096089163732
10 -0.000011010520212
11 -0.000017607782382
12 0.000105041984397
13 -0.000031178502150
14 -0.000022437191230
15 0.000031496816786
16 -0.000009059625555
17 0.000018818823302
18 -0.000028749679875
19 0.000060082151477