
 Working directory              : /scratch/koe/tmpdir_671508/molpro.YLSL3GL7ri/
 Global scratch directory       : /scratch/koe/tmpdir_671508/molpro.YLSL3GL7ri/
 Wavefunction directory         : /home/koe/nomodeco_testruns/MOLPRO/c2h2/
 Main file repository           : /home/koe/nomodeco_testruns/MOLPRO/c2h2/

 id        : liedlgroup

 Nodes     nprocs
 rune01      10
 GA implementation: MPI file
 GA implementation (serial work in mppx): MPI file

 Using customized tuning parameters: mindgm=1; mindgv=20; mindgc=4; mindgr=1; noblas=0; minvec=7
 default implementation of scratch files=sf  


 Variables initialized (1015), CPU time= 0.01 sec
 ***,C2H2 harmonic vibrational spectrum
 memory,1000,m
 
 orient,mass
 geometry={
 C1
 H1,C1,bch
 C2,C1,bcc,H1,180.0
 H2,C2,bch,C1,180.0,H1,0.0
 }
 
 
 bcc = 1.203 ANG
 bch = 1.060 ANG
 
 mass,iso
 basis=vtz
 hf
 optg
 {freq,analytical,symm=auto, print=0}
 put, molden, c2h2.molden
 Commands initialized (818), CPU time= 0.00 sec, 672 directives.
 Default parameters read. Elapsed time= 0.18 sec

 Checking input...
 Passed
1


                                         ***  PROGRAM SYSTEM MOLPRO  ***
                                       Copyright, TTI GmbH Stuttgart, 2015
                                    Version 2022.1 linked Jan 25 2022 12:44:58


 **********************************************************************************************************************************
 LABEL *   C2H2 harmonic vibrational spectrum                                            
  64 bit mpp version                                                                     DATE: 30-Sep-22          TIME: 17:54:45  
 **********************************************************************************************************************************

 SHA1:             f3d4322b9bdbeed63a35be676bd653804e8a9433
 **********************************************************************************************************************************

 Memory per process:      1000 MW
 Total memory per node:  10000 MW

 GA preallocation disabled
 GA check disabled

 Variable memory set to 1000.0 MW

 ZCENTRE=MASS

 SETTING BCC            =         1.20300000  ANG                             
 SETTING BCH            =         1.06000000  ANG                             


 Using masses of most abundant isotopes

 **********************************************************************************************************************************
 SETTING BASIS          =    VTZ


 Recomputing integrals since basis changed


 Using spherical harmonics

 Library entry C      S cc-pVTZ              selected for orbital group  1
 Library entry C      P cc-pVTZ              selected for orbital group  1
 Library entry C      D cc-pVTZ              selected for orbital group  1
 Library entry C      F cc-pVTZ              selected for orbital group  1
 Library entry H      S cc-pVTZ              selected for orbital group  2
 Library entry H      P cc-pVTZ              selected for orbital group  2
 Library entry H      D cc-pVTZ              selected for orbital group  2


 PROGRAM * SEWARD (Integral evaluation for generally contracted gaussian basis sets)     Author: Roland Lindh, 1990

 Geometry written to block  1 of record 700

 Orientation using atomic masses  
 Molecule type: Linear
 Symmetry elements: X,Y,Z
 Rotational constants:      35.4711131     35.4711131      0.0000000 GHz

 Point group  D2h 



 ATOMIC COORDINATES

 NR  ATOM    CHARGE       X              Y              Z

   1  C1      6.00    0.000000000    0.000000000    1.136670264
   2  H1      1.00    0.000000000    0.000000000    3.139779956
   3  C2      6.00    0.000000000    0.000000000   -1.136670264
   4  H2      1.00    0.000000000    0.000000000   -3.139779956

 Bond lengths in Bohr (Angstrom)

 1-2  2.273340528  1-3  2.003109692  2-4  2.003109692
     ( 1.203000000)     ( 1.060000000)     ( 1.060000000)

 Bond angles

  1-2-4  180.00000000   2-1-3  180.00000000

 NUCLEAR CHARGE:                   14
 NUMBER OF PRIMITIVE AOS:         128
 NUMBER OF SYMMETRY AOS:          116
 NUMBER OF CONTRACTIONS:           88   (   20Ag  +   10B3u +   10B2u +    4B1g +   20B1u +   10B2g +   10B3g +    4Au  )
 NUMBER OF INNER CORE ORBITALS:     0   (    0Ag  +    0B3u +    0B2u +    0B1g +    0B1u +    0B2g +    0B3g +    0Au  )
 NUMBER OF OUTER CORE ORBITALS:     2   (    1Ag  +    0B3u +    0B2u +    0B1g +    1B1u +    0B2g +    0B3g +    0Au  )
 NUMBER OF VALENCE ORBITALS:       10   (    3Ag  +    1B3u +    1B2u +    0B1g +    3B1u +    1B2g +    1B3g +    0Au  )


 NUCLEAR REPULSION ENERGY   24.79172488

 EXTRA SYMMETRY OF AOS IN SYMMETRY 1:   1 1 1 1 1 1 1 1 2 1   2 1 2 1 1 1 1 1 1 2
 EXTRA SYMMETRY OF AOS IN SYMMETRY 2:   1 1 1 1 1 1 2 1 1 1
 EXTRA SYMMETRY OF AOS IN SYMMETRY 3:   1 1 1 1 1 1 2 1 1 1
 EXTRA SYMMETRY OF AOS IN SYMMETRY 5:   1 1 1 1 1 1 1 1 2 1   2 1 2 1 1 1 1 1 1 2
 EXTRA SYMMETRY OF AOS IN SYMMETRY 6:   1 1 1 1 1 1 2 1 1 1
 EXTRA SYMMETRY OF AOS IN SYMMETRY 7:   1 1 1 1 1 1 2 1 1 1

 Eigenvalues of metric

         1 0.136E-02 0.410E-02 0.922E-02 0.145E-01 0.249E-01 0.623E-01 0.116E+00 0.320E+00
         2 0.313E-01 0.102E+00 0.222E+00 0.388E+00 0.541E+00 0.114E+01 0.124E+01 0.156E+01
         3 0.313E-01 0.102E+00 0.222E+00 0.388E+00 0.541E+00 0.114E+01 0.124E+01 0.156E+01
         4 0.539E+00 0.706E+00 0.154E+01 0.213E+01
         5 0.134E-03 0.869E-03 0.138E-02 0.700E-02 0.193E-01 0.427E-01 0.802E-01 0.118E+00
         6 0.823E-02 0.442E-01 0.736E-01 0.961E-01 0.348E+00 0.435E+00 0.860E+00 0.124E+01
         7 0.823E-02 0.442E-01 0.736E-01 0.961E-01 0.348E+00 0.435E+00 0.860E+00 0.124E+01
         8 0.263E+00 0.392E+00 0.896E+00 0.154E+01


 Contracted 2-electron integrals neglected if value below      1.0D-11
 AO integral compression algorithm  1   Integral accuracy      1.0D-11

     7.864 MB (compressed) written to integral file ( 64.3%)

     Node minimum: 0.524 MB, node maximum: 1.049 MB


 NUMBER OF SORTED TWO-ELECTRON INTEGRALS:     102170.     BUFFER LENGTH:  32768
 NUMBER OF SEGMENTS:   1  SEGMENT LENGTH:     102170      RECORD LENGTH: 524288

 Memory used in sort:       0.66 MW

 SORT1 READ     1545856. AND WROTE       88401. INTEGRALS IN      1 RECORDS. CPU TIME:     0.05 SEC, REAL TIME:     0.07 SEC
 SORT2 READ      882978. AND WROTE     1044030. INTEGRALS IN     30 RECORDS. CPU TIME:     0.01 SEC, REAL TIME:     0.02 SEC

 Node minimum:      101914.  Node maximum:      106900. integrals

 OPERATOR DM      FOR CENTER  0  COORDINATES:    0.000000    0.000000    0.000000


 **********************************************************************************************************************************
 DATASETS  * FILE   NREC   LENGTH (MB)   RECORD NAMES
              1      18       28.65       500      610      700      900      950      970     1000      129      960     1100   
                                          VAR    BASINP    GEOM    SYMINP    ZMAT    AOBASIS   BASIS     P2S    ABASIS      S 
                                         1400     1410     1200     1210     1080     1600     1650     1700   
                                           T        V       H0       H01     AOSYM     SMH    MOLCAS    OPER   

 PROGRAMS   *        TOTAL       INT
 CPU TIMES  *         0.65      0.47
 REAL TIME  *         1.41 SEC
 DISK USED  *        28.95 MB (local),      335.35 MB (total)
 GA USED    *         0.00 MB       (max)       0.00 MB       (current)
 **********************************************************************************************************************************


 Program * Restricted Hartree-Fock

 Orbital guess generated from atomic densities. Full valence occupancy:    4   1   1   0   4   1   1   0


 Initial occupancy:   3   1   1   0   2   0   0   0

 NELEC=   14   SYM=1   MS2= 0   THRE=1.0D-08   THRD=1.0D-06   THRG=1.0D-06  HFMA2=F  DIIS_START=2   DIIS_MAX=10   DIIS_INCORE=F

 Level shifts:    0.00 (CLOSED)    0.00 (OPEN)    0.30 (GAP_MIN)

 ITER           ETOT              DE          GRAD        DDIFF     DIIS  NEXP   TIME(IT)  TIME(TOT)  DIAG
   1      -76.83419164     -76.83419164     0.00D+00     0.21D+00     0     0       0.00      0.00    start
   2      -76.84803580      -0.01384416     0.11D-01     0.18D-01     1     0       0.00      0.00    diag
   3      -76.84930379      -0.00126798     0.34D-02     0.40D-02     2     0       0.00      0.00    diag
   4      -76.84941899      -0.00011520     0.72D-03     0.15D-02     3     0       0.00      0.00    diag
   5      -76.84942327      -0.00000429     0.14D-03     0.29D-03     4     0       0.00      0.00    diag
   6      -76.84942341      -0.00000014     0.24D-04     0.62D-04     5     0       0.00      0.00    diag
   7      -76.84942341      -0.00000000     0.31D-05     0.93D-05     6     0       0.00      0.00    diag
   8      -76.84942341      -0.00000000     0.39D-06     0.12D-05     7     0       0.00      0.00    fixocc
   9      -76.84942341      -0.00000000     0.33D-07     0.14D-06     8     0       0.00      0.00    diag
  10      -76.84942341       0.00000000     0.28D-08     0.75D-08     0     0       0.01      0.01    diag/orth

 Final occupancy:   3   1   1   0   2   0   0   0

 !RHF STATE 1.1 Energy                -76.849423414205
  RHF One-electron energy            -151.732483171726
  RHF Two-electron energy              50.091334878583
  RHF Kinetic energy                   76.692505347180
  RHF Nuclear energy                   24.791724878938
  RHF Virial quotient                  -1.002046067817

 !RHF STATE 1.1 Dipole moment           0.00000000     0.00000000     0.00000000
 Dipole moment /Debye                   0.00000000     0.00000000     0.00000000

 Orbital energies:

           1.1          2.1          3.1          4.1          5.1
    -11.241461    -1.028670    -0.680596     0.171167     0.308623

           1.2          2.2          3.2
     -0.409661     0.434320     0.804636

           1.3          2.3          3.3
     -0.409661     0.434320     0.804636

           1.4          2.4
      0.772906     2.714913

           1.5          2.5          3.5          4.5
    -11.237650    -0.767207     0.151136     0.410759

           1.6          2.6
      0.177117     0.574130

           1.7          2.7
      0.177117     0.574130

           1.8          2.8
      1.096218     3.296476


 HOMO      1.3    -0.409661 =     -11.1474eV
 LUMO      3.5     0.151136 =       4.1126eV
 LUMO-HOMO         0.560797 =      15.2601eV

 Orbitals saved in record  2100.2


 **********************************************************************************************************************************
 DATASETS  * FILE   NREC   LENGTH (MB)   RECORD NAMES
              1      18       28.65       500      610      700      900      950      970     1000      129      960     1100   
                                          VAR    BASINP    GEOM    SYMINP    ZMAT    AOBASIS   BASIS     P2S    ABASIS      S 
                                         1400     1410     1200     1210     1080     1600     1650     1700   
                                           T        V       H0       H01     AOSYM     SMH    MOLCAS    OPER   

              2       4        0.40       700     1000      520     2100   
                                         GEOM     BASIS   MCVARS     RHF  

 PROGRAMS   *        TOTAL    HF-SCF       INT
 CPU TIMES  *         0.67      0.02      0.47
 REAL TIME  *         1.43 SEC
 DISK USED  *        29.19 MB (local),      337.76 MB (total)
 GA USED    *         0.00 MB       (max)       0.00 MB       (current)
 **********************************************************************************************************************************


 PROGRAM * OPT (Geometry optimization)     Authors: F. Eckert and H.-J. Werner


 BFGS update of hessian

 *** Long output written to logfile /home/koe/nomodeco_testruns/MOLPRO/c2h2/c2h2.log ***


 Geometry optimization using default procedure for command HF-SCF

 Geometry written to block  1 of record 700

 Making model hessian for Z-matrix coordinates

 Entering Rational Function Geometry Optimization

 ITER.   ENERGY(OLD)    ENERGY(NEW)      DE          GRADMAX     GRADNORM    GRADRMS     STEPMAX     STEPLEN     STEPRMS   CPU-time
   1   -76.84942341   -76.85060196    -0.00117854  0.05198232  0.05281633  0.03734679  0.04859648  0.04936087  0.02468044      0.63
   2   -76.85060196   -76.85062372    -0.00002177  0.00697916  0.00739811  0.00523126  0.00563499  0.00600621  0.00300311      1.28
   3   -76.85062372   -76.85062392    -0.00000020  0.00053014  0.00062759  0.00044378  0.00052095  0.00057574  0.00028787      1.90
   4   -76.85062392   -76.85062392    -0.00000000  0.00006922  0.00007493  0.00005298  0.00007796  0.00008137  0.00004068      2.54

 END OF GEOMETRY OPTIMIZATION.

 Optimized variables
 BCH=                 1.05400394 ANG
 BCC=                 1.18012370 ANG

 **********************************************************************************************************************************

 Geometry written to block  1 of record 700

 Recomputing wavefunction for reoriented structure

 Current geometry (xyz format, in Angstrom)

    4
 HF-SCF000/VTZ  ENERGY=-76.85062392
 C          0.0000000000        0.0000000000        0.5900618519
 H          0.0000000000        0.0000000000        1.6440657917
 C          0.0000000000        0.0000000000       -0.5900618519
 H          0.0000000000        0.0000000000       -1.6440657917

 **********************************************************************************************************************************


 **********************************************************************************************************************************
 DATASETS  * FILE   NREC   LENGTH (MB)   RECORD NAMES
              1      18       28.65       500      610      700      900      950      970     1000      129      960     1100   
                                          VAR    BASINP    GEOM    SYMINP    ZMAT    AOBASIS   BASIS     P2S    ABASIS      S 
                                         1400     1410     1200     1210     1080     1600     1650     1700   
                                           T        V       H0       H01     AOSYM     SMH    MOLCAS    OPER   

              2       4        0.40       700     1000      520     2100   
                                         GEOM     BASIS   MCVARS     RHF  

 PROGRAMS   *        TOTAL      OPTG    HF-SCF       INT
 CPU TIMES  *         3.22      2.56      0.02      0.47
 REAL TIME  *         4.41 SEC
 DISK USED  *        29.19 MB (local),      337.76 MB (total)
 SF USED    *         0.01 MB
 GA USED    *         0.00 MB       (max)       0.00 MB       (current)
 **********************************************************************************************************************************


 PROGRAM * HESSIAN

 PROGRAM * MCKINLEY (Hessian of the energy)     Author: A. Bernhardsson, R. Lindh

 Orbitals from record         2100.2

 Number of closed-shell orbitals:  7 (  3  1  1  0  2  0  0  0 )
 Number of occupied orbitals:      7 (  3  1  1  0  2  0  0  0 )

 Number of electrons= 14     Singlet     Space symmetry=1      Wavefunction type: CLOSED          


 McKinley needed      0.81 seconds of CPU time

 Entering CPHF calculation

 CPHF needed  83 iterations for 12 perturbations.  Total CPU time:    0.07 sec


 HF-SCF hessian saved to record  5300.2

 PROGRAM * FREQUENCIES (Calculation of harmonic vibrational spectra for HF-SCF)


 Permanent Dipole Moment [debye]
   1-  3    0.000000    0.000000    0.000000

 Dipole Moment Norm    0.0000000 [debye]

 Dipole Moment Derivatives [debye/ang]
              1             2             3             4             5             6             7             8
    1     0.0000000     0.0000000     0.0000000     0.0000000     0.0000000     0.0000000     0.0000000     0.0000000
    2     0.0000000     0.0000000     0.0000000     0.0000000     0.0000000     0.0000000     0.0000000     0.0000000
    3     0.0000000     0.0000000     0.0000000     0.0000000     0.0000000     0.0000000     0.0000000     0.0000000
              9            10            11            12
    1     0.0000000     0.0000000     0.0000000     0.0000000
    2     0.0000000     0.0000000     0.0000000     0.0000000
    3     0.0000000     0.0000000     0.0000000     0.0000000

 Projecting out rotations and translations

 Force Constants (Second Derivatives of the Energy) in [a.u.]
                             C1X1        C1Y1        C1Z1        H1X2        H1Y2    
           C1X1          0.0717497
           C1Y1          0.0000000   0.0717497
           C1Z1          0.0000000   0.0000000   1.7428414
           H1X2         -0.0342651   0.0000000   0.0000000   0.0208117
           H1Y2          0.0000000  -0.0342651   0.0000000   0.0000000   0.0208117
           H1Z2          0.0000000   0.0000000  -0.4523497   0.0000000   0.0000000
           C2X3         -0.0451894   0.0000000   0.0000000   0.0077048   0.0000000
           C2Y3          0.0000000  -0.0451894   0.0000000   0.0000000   0.0077048
           C2Z3          0.0000000   0.0000000  -1.2981974   0.0000000   0.0000000
           H2X4          0.0077048   0.0000000   0.0000000   0.0057485   0.0000000
           H2Y4          0.0000000   0.0077048   0.0000000   0.0000000   0.0057485
           H2Z4          0.0000000   0.0000000   0.0077058   0.0000000   0.0000000
                             H1Z2        C2X3        C2Y3        C2Z3        H2X4    
           H1Z2          0.4453692
           C2X3          0.0000000   0.0717497
           C2Y3          0.0000000   0.0000000   0.0717497
           C2Z3          0.0077058   0.0000000   0.0000000   1.7428414
           H2X4          0.0000000  -0.0342651   0.0000000   0.0000000   0.0208117
           H2Y4          0.0000000   0.0000000  -0.0342651   0.0000000   0.0000000
           H2Z4         -0.0007252   0.0000000   0.0000000  -0.4523497   0.0000000
                             H2Y4        H2Z4    
           H2Y4          0.0208117
           H2Z4          0.0000000   0.4453692


 Atomic Masses
   1-  4   12.000000    1.007825   12.000000    1.007825

 Mass weighted Second Derivative Matrix
                             C1X1        C1Y1        C1Z1        H1X2        H1Y2    
           C1X1          0.0059791
           C1Y1          0.0000000   0.0059791
           C1Z1          0.0000000   0.0000000   0.1452368
           H1X2         -0.0098530   0.0000000   0.0000000   0.0206501
           H1Y2          0.0000000  -0.0098530   0.0000000   0.0000000   0.0206501
           H1Z2          0.0000000   0.0000000  -0.1300742   0.0000000   0.0000000
           C2X3         -0.0037658   0.0000000   0.0000000   0.0022155   0.0000000
           C2Y3          0.0000000  -0.0037658   0.0000000   0.0000000   0.0022155
           C2Z3          0.0000000   0.0000000  -0.1081831   0.0000000   0.0000000
           H2X4          0.0022155   0.0000000   0.0000000   0.0057039   0.0000000
           H2Y4          0.0000000   0.0022155   0.0000000   0.0000000   0.0057039
           H2Z4          0.0000000   0.0000000   0.0022158   0.0000000   0.0000000
                             H1Z2        C2X3        C2Y3        C2Z3        H2X4    
           H1Z2          0.4419112
           C2X3          0.0000000   0.0059791
           C2Y3          0.0000000   0.0000000   0.0059791
           C2Z3          0.0022158   0.0000000   0.0000000   0.1452368
           H2X4          0.0000000  -0.0098530   0.0000000   0.0000000   0.0206501
           H2Y4          0.0000000   0.0000000  -0.0098530   0.0000000   0.0000000
           H2Z4         -0.0007196   0.0000000   0.0000000  -0.1300742   0.0000000
                             H2Y4        H2Z4    
           H2Y4          0.0206501
           H2Z4          0.0000000   0.4419112


 Mass Weighted 2nd Derivative Matrix Eigenvalues
   1- 10    0.000000    0.000000    0.000000    0.000000    0.000000    0.024691    0.024691    0.028567    0.028567    0.185388
  11- 12    0.478245    0.510662

 Mass Weighted 2nd Derivative Matrix Eigenvectors
              1             2             3             4             5             6             7             8
    1     0.2588929    -0.0491240     0.0302458     0.2511320     0.7940426    -0.0000000    -0.4442257    -0.1968227
    2     0.3822466    -0.0770575     0.0769203     0.6943386    -0.3519251    -0.4442257     0.0000000     0.0000003
    3     0.5432581     0.2662045    -0.0073704    -0.3016464    -0.0649746     0.0000000     0.0000000     0.0000000
    4     0.1910282    -0.2262297    -0.0013858     0.0625448     0.3801187     0.0000001     0.5501487     0.6791618
    5     0.1934201    -0.0262152    -0.1816162     0.3670992    -0.1738700     0.5501487    -0.0000001    -0.0000009
    6     0.1574375     0.0771467    -0.0021360    -0.0874179    -0.0188298     0.0000000     0.0000000     0.0000000
    7    -0.1892775     0.7699173     0.0694650     0.2906707     0.2145018     0.0000000     0.4442257    -0.1968227
    8     0.0629491    -0.0620526     0.8647229     0.0534644    -0.0742103     0.4442257    -0.0000000     0.0000003
    9     0.5432581     0.2662045    -0.0073704    -0.3016464    -0.0649746     0.0000000     0.0000000     0.0000000
   10    -0.1708535     0.4351173     0.0302823     0.0944709    -0.0878401    -0.0000001    -0.5501487     0.6791618
   11    -0.0644014    -0.0140993     0.4545066    -0.1503842     0.0503749    -0.5501487     0.0000001    -0.0000009
   12     0.1574375     0.0771467    -0.0021360    -0.0874179    -0.0188298     0.0000000     0.0000000     0.0000000
              9            10            11            12
    1    -0.0000003     0.0000000     0.0000000     0.0000000
    2    -0.1968227     0.0000000     0.0000000     0.0000000
    3     0.0000000     0.6288276    -0.1968227    -0.3233819
    4     0.0000009     0.0000000     0.0000000     0.0000000
    5     0.6791618     0.0000000     0.0000000     0.0000000
    6     0.0000000     0.3233819     0.6791618     0.6288276
    7    -0.0000003     0.0000000     0.0000000     0.0000000
    8    -0.1968227     0.0000000     0.0000000     0.0000000
    9     0.0000000    -0.6288276    -0.1968227     0.3233819
   10     0.0000009     0.0000000     0.0000000     0.0000000
   11     0.6791618     0.0000000     0.0000000     0.0000000
   12     0.0000000    -0.3233819     0.6791618    -0.6288276

   Low Vibration      Wavenumber
        Nr             [1/cm] 
        1                0.00
        2                0.00
        3                0.00
        4                0.00
        5                0.00

     Vibration        Wavenumber
        Nr             [1/cm] 
        1              807.75
        2              807.75
        3              868.84
        4              868.84
        5             2213.33
        6             3554.92
        7             3673.43

 FREQUENCIES * CALCULATION OF NORMAL MODES FOR HF-SCF


 Atomic Coordinates

  Nr  Atom  Charge       X              Y              Z

   1   C1    6.00    0.000000000    0.000000000    1.115055297
   2   H1    1.00    0.000000000    0.000000000    3.106834077
   3   C2    6.00    0.000000000    0.000000000   -1.115055297
   4   H2    1.00    0.000000000    0.000000000   -3.106834077

 Gradient norm at reference geometry: 0.49661D-04

 Normal Modes

                              1 B3g       2 B2g       3 B3u       4 B2u       5 Ag 
 Wavenumbers [cm-1]          807.75      807.75      868.84      868.84     2213.33
 Intensities [km/mol]          0.00        0.00        0.00        0.00        0.00
 Intensities [relative]        0.00        0.00        0.00        0.00        0.00
           C1X1            -0.00000    -0.12824    -0.05682    -0.00000    -0.00000
           C1Y1            -0.12824     0.00000     0.00000    -0.05682    -0.00000
           C1Z1            -0.00000     0.00000    -0.00000    -0.00000     0.18153
           H1X2             0.00000     0.54801     0.67652     0.00000    -0.00000
           H1Y2             0.54801    -0.00000    -0.00000     0.67652    -0.00000
           H1Z2            -0.00000     0.00000    -0.00000    -0.00000     0.32212
           C2X3             0.00000     0.12824    -0.05682    -0.00000     0.00000
           C2Y3             0.12824    -0.00000     0.00000    -0.05682    -0.00000
           C2Z3            -0.00000     0.00000    -0.00000    -0.00000    -0.18153
           H2X4            -0.00000    -0.54801     0.67652     0.00000    -0.00000
           H2Y4            -0.54801     0.00000    -0.00000     0.67652    -0.00000
           H2Z4            -0.00000     0.00000    -0.00000    -0.00000    -0.32212

                              6 B1u       7 Ag 
 Wavenumbers [cm-1]         3554.92     3673.43
 Intensities [km/mol]          0.00        0.00
 Intensities [relative]        0.00        0.00
           C1X1            -0.00000     0.00000
           C1Y1            -0.00000     0.00000
           C1Z1            -0.05682    -0.09335
           H1X2             0.00000     0.00000
           H1Y2            -0.00000    -0.00000
           H1Z2             0.67652     0.62638
           C2X3            -0.00000     0.00000
           C2Y3             0.00000     0.00000
           C2Z3            -0.05682     0.09335
           H2X4            -0.00000     0.00000
           H2Y4            -0.00000     0.00000
           H2Z4             0.67652    -0.62638


 Normal Modes of low/zero frequencies

                                  1           2           3           4           5
 Wavenumbers [cm-1]            0.00        0.00        0.00        0.00        0.00
 Intensities [km/mol]          0.00        0.00        0.00        0.00        0.00
 Intensities [relative]        0.00        0.00        0.00        0.00        0.00
           C1X1             0.07474    -0.01418     0.00873     0.07250     0.22922
           C1Y1             0.11035    -0.02224     0.02220     0.20044    -0.10159
           C1Z1             0.15683     0.07685    -0.00213    -0.08708    -0.01876
           H1X2             0.19029    -0.22535    -0.00138     0.06230     0.37864
           H1Y2             0.19267    -0.02611    -0.18091     0.36567    -0.17319
           H1Z2             0.15683     0.07685    -0.00213    -0.08708    -0.01876
           C2X3            -0.05464     0.22226     0.02005     0.08391     0.06192
           C2Y3             0.01817    -0.01791     0.24962     0.01543    -0.02142
           C2Z3             0.15683     0.07685    -0.00213    -0.08708    -0.01876
           H2X4            -0.17019     0.43342     0.03016     0.09410    -0.08750
           H2Y4            -0.06415    -0.01404     0.45274    -0.14980     0.05018
           H2Z4             0.15683     0.07685    -0.00213    -0.08708    -0.01876


 Frequencies dumped to record   5400.2

 Zero point energy:  0.02914879 [H]     6397.42 [1/CM]       76.53 [KJ/MOL]
 Frequency information read from record  5400.2


 **********************************************************************************************************************************
 DATASETS  * FILE   NREC   LENGTH (MB)   RECORD NAMES
              1      18       28.65       500      610      700      900      950      970     1000      129      960     1100   
                                          VAR    BASINP    GEOM    SYMINP    ZMAT    AOBASIS   BASIS     P2S    ABASIS      S 
                                         1400     1410     1200     1210     1080     1600     1650     1700   
                                           T        V       H0       H01     AOSYM     SMH    MOLCAS    OPER   

              2       7        0.42       700     1000      520     2100     5300     5450     5400   
                                         GEOM     BASIS   MCVARS     RHF     HESS     NMOD     FREQ   

              4       5        0.13      4100     4000     4200     4300     4400   

 PROGRAMS   *        TOTAL      FREQ      OPTG    HF-SCF       INT
 CPU TIMES  *         4.10      0.88      2.56      0.02      0.47
 REAL TIME  *         5.35 SEC
 DISK USED  *        29.19 MB (local),      337.76 MB (total)
 SF USED    *         0.13 MB
 GA USED    *         0.00 MB       (max)       0.00 MB       (current)
 **********************************************************************************************************************************

 Dump information in style MOLDEN to c2h2.molden                                                                     

 Molecular orbitals read from record     2100.2  Type=RHF/CANONICAL  
 Occupation numbers read from record     2100.2  Type=RHF/RHF  
 Orbital energies read from record       2100.2  Type=RHF/CANONICAL  
 Redundancy group numbers read from rec  2100.2  Type=RHF/RHF  

 DUMP ORBITAL  1.1 AS ORBITAL    1  occ=    2.0000  eig=  -11.2335  GROUP=   2
 DUMP ORBITAL  1.5 AS ORBITAL    2  occ=    2.0000  eig=  -11.2291  GROUP=   2
 DUMP ORBITAL  2.1 AS ORBITAL    3  occ=    2.0000  eig=   -1.0354  GROUP=   2
 DUMP ORBITAL  2.5 AS ORBITAL    4  occ=    2.0000  eig=   -0.7659  GROUP=   2
 DUMP ORBITAL  3.1 AS ORBITAL    5  occ=    2.0000  eig=   -0.6829  GROUP=   2
 DUMP ORBITAL  1.3 AS ORBITAL    6  occ=    2.0000  eig=   -0.4150  GROUP=   2
 DUMP ORBITAL  1.2 AS ORBITAL    7  occ=    2.0000  eig=   -0.4150  GROUP=   2

 Total charge:      14.000000
 Frequency information read from record  5400.2

 **********************************************************************************************************************************

 HF/cc-pVTZ//HF/cc-pVTZ energy=    -76.850623924863

    OPTG(HF-SCF)          HF-SCF
    -76.85062392    -76.84942341
 **********************************************************************************************************************************
 Molpro calculation terminated
