
 Working directory              : /scratch/koe/tmpdir_612145/molpro.BIycO5j4t1/
 Global scratch directory       : /scratch/koe/tmpdir_612145/molpro.BIycO5j4t1/
 Wavefunction directory         : /home/koe/bachelorthesis/calc/C6H12/HF_analytical/new_calc/
 Main file repository           : /home/koe/bachelorthesis/calc/C6H12/HF_analytical/new_calc/

 id        : liedlgroup

 Nodes     nprocs
 rune03      12
 GA implementation: MPI file
 GA implementation (serial work in mppx): MPI file

 Using customized tuning parameters: mindgm=1; mindgv=20; mindgc=4; mindgr=1; noblas=0; minvec=7
 default implementation of scratch files=sf  


 Variables initialized (1015), CPU time= 0.01 sec
 ***,c6h12 (cyclohexane) vibrational spectrum in chair conformation
 memory,600,m
 
 orient,mass
 geometry={
 C1          0.2279537760       -1.4181258549        0.3430606844
 C2         -0.2284742561       -0.4119487780        1.3995689595
 C3          0.2282111099        1.0060611608        1.0566186946
 C4         -0.2279543932        1.4181215084       -0.3430412275
 C5          0.2284736480        0.4119761896       -1.3995797431
 C6         -0.2282117315       -1.0061075755       -1.0566116206
 H1         -0.1551325943        1.7027103815        1.7968002417
 H2         -1.3120425417       -0.4277433028        1.4755397322
 H3          0.1546847054       -0.7047630030        2.3730114563
 H4          1.3114961563       -1.4921623481        0.3674689355
 H5         -0.1555434784       -2.4074359045        0.5761631009
 H6         -1.3114950397        1.4921866217       -0.3674396121
 H7          0.1555667326        2.4074266509       -0.5761251950
 H8         -0.1546853105        0.7048196719       -2.3730134400
 H9          1.3120419338        0.4277730025       -1.4755500362
 H10         -1.3117654231       -1.0549320028       -1.1171824685
 H11          0.1551295029       -1.7114508612       -1.7885143478
 H12          1.3117673477        1.0638491136        1.1086541322
 }
 
 mass,iso
 basis=vtz
 
 {hf
 start,atden}
 
 
 {optg, GRADIENT=3.0D-8, ENERGY=1.0D-10, STEP=3.0D-8}
 {frequencies, symm=auto, print=0, analytical}
 put,molden,c2h6.molden
 
 Commands initialized (818), CPU time= 0.00 sec, 672 directives.
 Default parameters read. Elapsed time= 0.64 sec

 Checking input...
 Passed
1


                                         ***  PROGRAM SYSTEM MOLPRO  ***
                                       Copyright, TTI GmbH Stuttgart, 2015
                                    Version 2022.1 linked Jan 25 2022 12:44:58


 **********************************************************************************************************************************
 LABEL *   c6h12 (cyclohexane) vibrational spectrum in chair conformation                
  64 bit mpp version                                                                     DATE: 26-May-22          TIME: 13:33:19  
 **********************************************************************************************************************************

 SHA1:             f3d4322b9bdbeed63a35be676bd653804e8a9433
 **********************************************************************************************************************************

 Memory per process:       600 MW
 Total memory per node:   7200 MW

 GA preallocation disabled
 GA check disabled

 Variable memory set to 600.0 MW

 ZCENTRE=MASS


 Geometry recognized as XYZ



 Using masses of most abundant isotopes

 **********************************************************************************************************************************
 SETTING BASIS          =    VTZ


 Recomputing integrals since basis changed


 Using spherical harmonics

 Library entry C      S cc-pVTZ              selected for orbital group  1
 Library entry C      P cc-pVTZ              selected for orbital group  1
 Library entry C      D cc-pVTZ              selected for orbital group  1
 Library entry C      F cc-pVTZ              selected for orbital group  1
 Library entry H      S cc-pVTZ              selected for orbital group  2
 Library entry H      P cc-pVTZ              selected for orbital group  2
 Library entry H      D cc-pVTZ              selected for orbital group  2


 PROGRAM * SEWARD (Integral evaluation for generally contracted gaussian basis sets)     Author: Roland Lindh, 1990

 Geometry written to block  1 of record 700

 Orientation using atomic masses  
 Molecule type: Asymmetric top
 Rotational constants:       4.3339715      2.4701688      4.3348440 GHz

 Point group  C1  



 ATOMIC COORDINATES

 NR  ATOM    CHARGE       X              Y              Z

   1  C1       6.00    0.648290899    0.430770206   -2.679869437
   2  C2       6.00    2.644802073   -0.431753771   -0.778470209
   3  C3       6.00    1.996719837    0.431256496    1.901180179
   4  C4       6.00   -0.648254131   -0.430771372    2.679861223
   5  C5       6.00   -2.644822451    0.431752621    0.778522009
   6  C6       6.00   -1.996706469   -0.431257671   -1.901267890
   7  H1       1.00    3.395460164   -0.293158116    3.217656495
   8  H2       1.00    2.788366028   -2.479401068   -0.808317526
   9  H3       1.00    4.484341823    0.292311729   -1.331808789
  10  H4       1.00    0.694415817    2.478368549   -2.819778130
  11  H5       1.00    1.088790738   -0.293934575   -4.549394457
  12  H6       1.00   -0.694360404   -2.478366439    2.819824000
  13  H7       1.00   -1.088719106    0.293978519    4.549376970
  14  H8       1.00   -4.484345572   -0.292312872    1.331915877
  15  H9       1.00   -2.788385500    2.479399919    0.808373650
  16  H10       1.00   -2.111168777   -2.478877389   -1.993532692
  17  H11       1.00   -3.379802093    0.293152274   -3.234173607
  18  H12       1.00    2.095052556    2.478881026    2.010383589

 Bond lengths in Bohr (Angstrom)

  1- 2  2.888827358   1- 6  2.888827358   1-10  2.052890870   1-11  2.052890870   2- 3  2.888827358
       ( 1.528701604)       ( 1.528701604)       ( 1.086343065)       ( 1.086343065)       ( 1.528701604)

  2- 8  2.052890870   2- 9  2.052890870   3- 4  2.888827358   3- 7  2.052890870   3-18  2.052890870
       ( 1.086343065)       ( 1.086343065)       ( 1.528701604)       ( 1.086343065)       ( 1.086343065)

  4- 5  2.888827358   4-12  2.052890870   4-13  2.052890870   5- 6  2.888964346   5-14  2.052890870
       ( 1.528701604)       ( 1.086343065)       ( 1.086343065)       ( 1.528774095)       ( 1.086343065)

  5-15  2.052890870   6-16  2.052890870   6-17  2.052890870
       ( 1.086343065)       ( 1.086343065)       ( 1.086343065)

 Bond angles

  1-2-3  111.48703854   1-2-8  109.66813578   1-2-9  109.66813578   1-6-5  111.48596901

  1- 6-16  109.66813577   1- 6-17  109.66813578   2- 1- 6  111.48703854   2- 1-10  109.09476044

  2- 1-11  110.22473501   2- 3- 4  111.48703854   2- 3- 7  109.66813577   2- 3-18  109.66813577

  3- 2- 8  109.09605105   3- 2- 9  110.22345505   3- 4- 5  111.48703854   3- 4-12  109.66813578

  3- 4-13  109.66813577   4- 3- 7  110.22345505   4- 3-18  109.09605105   4- 5- 6  111.48596901

  4- 5-14  109.66813577   4- 5-15  109.66813578   5- 4-12  109.09605105   5- 4-13  110.22345505

  5- 6-16  109.09531556   5- 6-17  110.22530239   6- 1-10  109.66813577   6- 1-11  109.66813577

  6- 5-14  110.22530239   6- 5-15  109.09531556   7- 3-18  106.57204863   8- 2- 9  106.57204863

 10- 1-11  106.57204863  12- 4-13  106.57204863  14- 5-15  106.57204863  16- 6-17  106.57204864

 NUCLEAR CHARGE:                   48
 NUMBER OF PRIMITIVE AOS:         486
 NUMBER OF SYMMETRY AOS:          444
 NUMBER OF CONTRACTIONS:          348   (  348A   )
 NUMBER OF INNER CORE ORBITALS:     0   (    0A   )
 NUMBER OF OUTER CORE ORBITALS:     6   (    6A   )
 NUMBER OF VALENCE ORBITALS:       36   (   36A   )


 NUCLEAR REPULSION ENERGY  256.66633455


 Eigenvalues of metric

         1 0.359E-03 0.359E-03 0.482E-03 0.727E-03 0.729E-03 0.950E-03 0.102E-02 0.102E-02


 Contracted 2-electron integrals neglected if value below      1.0D-11
 AO integral compression algorithm  1   Integral accuracy      1.0D-11

     6151.733 MB (compressed) written to integral file ( 40.5%)

     Node minimum: 492.831 MB, node maximum: 533.463 MB


 NUMBER OF SORTED TWO-ELECTRON INTEGRALS:  153651960.     BUFFER LENGTH:  32768
 NUMBER OF SEGMENTS:   5  SEGMENT LENGTH:   31999824      RECORD LENGTH: 524288

 Memory used in sort:      32.56 MW

 SORT1 READ  1898687105. AND WROTE   132511247. INTEGRALS IN    382 RECORDS. CPU TIME:    23.18 SEC, REAL TIME:    24.33 SEC
 SORT2 READ  1597087000. AND WROTE  1843853901. INTEGRALS IN  22908 RECORDS. CPU TIME:     1.61 SEC, REAL TIME:     2.68 SEC

 Node minimum:   153626660.  Node maximum:   153682326. integrals

 OPERATOR DM      FOR CENTER  0  COORDINATES:    0.000000    0.000000    0.000000


 **********************************************************************************************************************************
 DATASETS  * FILE   NREC   LENGTH (MB)   RECORD NAMES
              1      18       33.11       500      610      700      900      950      970     1000      129      960     1100   
                                          VAR    BASINP    GEOM    SYMINP    ZMAT    AOBASIS   BASIS     P2S    ABASIS      S 
                                         1400     1410     1200     1210     1080     1600     1650     1700   
                                           T        V       H0       H01     AOSYM     SMH    MOLCAS    OPER   

 PROGRAMS   *        TOTAL       INT
 CPU TIMES  *        30.63     30.49
 REAL TIME  *        35.30 SEC
 DISK USED  *        33.74 MB (local),       23.91 GB (total)
 GA USED    *         0.00 MB       (max)       0.00 MB       (current)
 **********************************************************************************************************************************


 Program * Restricted Hartree-Fock

 Orbital guess generated from atomic densities. Full valence occupancy:   42

 Initial occupancy:  24

 NELEC=   48   SYM=1   MS2= 0   THRE=1.0D-08   THRD=1.0D-06   THRG=1.0D-06  HFMA2=F  DIIS_START=2   DIIS_MAX=10   DIIS_INCORE=F

 Level shifts:    0.00 (CLOSED)    0.00 (OPEN)    0.30 (GAP_MIN)

 ITER           ETOT              DE          GRAD        DDIFF     DIIS  NEXP   TIME(IT)  TIME(TOT)  DIAG
   1     -234.20163035    -234.20163035     0.00D+00     0.39D-01     0     0       1.16      2.30    start
   2     -234.27333699      -0.07170664     0.26D-02     0.36D-02     1     0       1.22      3.52    diag
   3     -234.28454391      -0.01120692     0.12D-02     0.11D-02     2     0       1.20      4.72    diag
   4     -234.28650309      -0.00195918     0.41D-03     0.45D-03     3     0       1.19      5.91    diag
   5     -234.28653883      -0.00003574     0.42D-04     0.85D-04     4     0       1.18      7.09    diag
   6     -234.28654004      -0.00000121     0.88D-05     0.20D-04     5     0       1.19      8.28    diag
   7     -234.28654008      -0.00000003     0.13D-05     0.40D-05     6     0       1.20      9.48    diag
   8     -234.28654008      -0.00000000     0.17D-06     0.41D-06     7     0       1.17     10.65    fixocc
   9     -234.28654008      -0.00000000     0.33D-07     0.57D-07     0     0       1.16     11.81    diag

 Final occupancy:  24

 !RHF STATE 1.1 Energy               -234.286540075729
  RHF One-electron energy            -823.851719419733
  RHF Two-electron energy             332.898844791456
  RHF Kinetic energy                  234.181013950527
  RHF Nuclear energy                  256.666334552548
  RHF Virial quotient                  -1.000450617765

 !RHF STATE 1.1 Dipole moment           0.00028138     0.00000331    -0.00027709
 Dipole moment /Debye                   0.00071521     0.00000842    -0.00070429

 Orbital energies:

           1.1          2.1          3.1          4.1          5.1          6.1          7.1          8.1          9.1         10.1
    -11.208765   -11.208508   -11.208437   -11.207889   -11.207819   -11.207531    -1.111536    -1.000170    -1.000131    -0.827698

          11.1         12.1         13.1         14.1         15.1         16.1         17.1         18.1         19.1         20.1
     -0.827660    -0.749916    -0.646507    -0.606989    -0.596662    -0.595984    -0.522267    -0.522246    -0.511136    -0.481460

          21.1         22.1         23.1         24.1         25.1         26.1
     -0.480869    -0.449534    -0.423997    -0.423311     0.141216     0.157765


 HOMO     24.1    -0.423311 =     -11.5189eV
 LUMO     25.1     0.141216 =       3.8427eV
 LUMO-HOMO         0.564527 =      15.3616eV

 Orbitals saved in record  2100.2


 **********************************************************************************************************************************
 DATASETS  * FILE   NREC   LENGTH (MB)   RECORD NAMES
              1      18       33.11       500      610      700      900      950      970     1000      129      960     1100   
                                          VAR    BASINP    GEOM    SYMINP    ZMAT    AOBASIS   BASIS     P2S    ABASIS      S 
                                         1400     1410     1200     1210     1080     1600     1650     1700   
                                           T        V       H0       H01     AOSYM     SMH    MOLCAS    OPER   

              2       4        2.53       700     1000      520     2100   
                                         GEOM     BASIS   MCVARS     RHF  

 PROGRAMS   *        TOTAL    HF-SCF       INT
 CPU TIMES  *        42.46     11.82     30.49
 REAL TIME  *        48.19 SEC
 DISK USED  *        43.14 MB (local),       24.02 GB (total)
 GA USED    *         0.00 MB       (max)       0.00 MB       (current)
 **********************************************************************************************************************************
   3  -234.28662993  -234.28663182    -0.00000189  0.00023103  0.00060872  0.00001268  0.00773999  0.00880213  0.00207468    159.17
   4  -234.28663182  -234.28663282    -0.00000101  0.00022021  0.00030625  0.00000638  0.00760995  0.00802583  0.00189171    212.79
   5  -234.28663282  -234.28663333    -0.00000051  0.00020757  0.00031663  0.00000660  0.00777398  0.00808975  0.00190677    266.40
   6  -234.28663333  -234.28663338    -0.00000005  0.00012585  0.00017052  0.00000355  0.00125816  0.00148019  0.00034888    319.27
   7  -234.28663338  -234.28663338    -0.00000001  0.00003153  0.00005361  0.00000112  0.00017660  0.00040142  0.00009462    370.69
   8  -234.28663338  -234.28663339    -0.00000000  0.00000831  0.00001682  0.00000035  0.00011296  0.00022848  0.00005385    422.17
   9  -234.28663339  -234.28663339    -0.00000000  0.00000742  0.00000985  0.00000021  0.00004984  0.00011454  0.00002700    472.32
  10  -234.28663339  -234.28663339     0.00000000  0.00000256  0.00000419  0.00000009  0.00004561  0.00005824  0.00001373    520.20
  11  -234.28663339  -234.28663339    -0.00000000  0.00000102  0.00000212  0.00000004  0.00001276  0.00002433  0.00000573    567.86
  12  -234.28663339  -234.28663339    -0.00000000  0.00000072  0.00000115  0.00000002  0.00004988  0.00006811  0.00001605    618.21
  13  -234.28663339  -234.28663339    -0.00000000  0.00000107  0.00000233  0.00000005  0.00038141  0.00047921  0.00011295    669.45
  14  -234.28663339  -234.28663339     0.00000000  0.00000702  0.00001131  0.00000024  0.00026986  0.00037715  0.00008889    720.76
  15  -234.28663339  -234.28663339    -0.00000000  0.00000162  0.00000263  0.00000005  0.00001312  0.00001836  0.00000433    768.50
  16  -234.28663339  -234.28663339     0.00000000  0.00000108  0.00000186  0.00000004  0.00000845  0.00001776  0.00000419    816.23
  17  -234.28663339  -234.28663339    -0.00000000  0.00000043  0.00000079  0.00000002  0.00000889  0.00001327  0.00000313    863.89
  18  -234.28663339  -234.28663339     0.00000000  0.00000016  0.00000037  0.00000001  0.00000118  0.00000310  0.00000073    911.94
  19  -234.28663339  -234.28663339    -0.00000000  0.00000010  0.00000018  0.00000000  0.00000405  0.00000599  0.00000141    959.65
  20  -234.28663339  -234.28663339     0.00000000  0.00000013  0.00000027  0.00000001  0.00000047  0.00000100  0.00000023   1007.48
  21  -234.28663339  -234.28663339    -0.00000000  0.00000004  0.00000010  0.00000000  0.00000403  0.00000595  0.00000140   1055.49
  22  -234.28663339  -234.28663339     0.00000000  0.00000024  0.00000048  0.00000001  0.00000155  0.00000258  0.00000061   1103.48
  23  -234.28663339  -234.28663339     0.00000000  0.00000005  0.00000012  0.00000000  0.00000159  0.00000217  0.00000051   1151.20
  24  -234.28663339  -234.28663339    -0.00000000  0.00000003  0.00000007  0.00000000  0.00000216  0.00000307  0.00000072   1199.17

 END OF GEOMETRY OPTIMIZATION.
 *** Symmetry of molecule has changed ***

 Geometry written to block  1 of record 700

 Recomputing wavefunction for reoriented structure

 Current geometry (xyz format, in Angstrom)

   18
 HF-SCF000/VTZ  ENERGY=-234.28663339
 C         -0.0000002707        0.2275983219       -1.4591430825
 C          1.2636549756       -0.2275983109       -0.7295715021
 C          1.2636546723        0.2275990495        0.7295715843
 C         -0.0000000355       -0.2275997866        1.4591426152
 C         -1.2636544293        0.2275997735        0.7295715441
 C         -1.2636549756       -0.2275990443       -0.7295710488
 H          2.1448812704       -0.1490123812        1.2383476146
 H          1.3254685977       -1.3130688826       -0.7652591681
 H          2.1448808766        0.1490144891       -1.2383477121
 H         -0.0000007061        1.3130688855       -1.5305192158
 H         -0.0000002291       -0.1490146396       -2.4766951521
 H         -0.0000004248       -1.3130705645        1.5305155596
 H          0.0000001248        0.1490102842        2.4766957466
 H         -2.1448813479       -0.1490101720        1.2383481073
 H         -1.3254649142        1.3130705592        0.7652583551
 H         -1.3254674824       -1.3130697190       -0.7652575836
 H         -2.1448813673        0.1490123803       -1.2383474314
 H          1.3254663551        1.3130697254        0.7652595668

 **********************************************************************************************************************************


 **********************************************************************************************************************************
 DATASETS  * FILE   NREC   LENGTH (MB)   RECORD NAMES
              1      18       33.11       500      610      700      900      950      970     1000      129      960     1100   
                                          VAR    BASINP    GEOM    SYMINP    ZMAT    AOBASIS   BASIS     P2S    ABASIS      S 
                                         1400     1410     1200     1210     1080     1600     1650     1700   
                                           T        V       H0       H01     AOSYM     SMH    MOLCAS    OPER   

              2       4        2.53       700     1000      520     2100   
                                         GEOM     BASIS   MCVARS     RHF  

 PROGRAMS   *        TOTAL      OPTG    HF-SCF       INT
 CPU TIMES  *      1285.22   1242.76     11.82     30.49
 REAL TIME  *      1370.71 SEC
 DISK USED  *        44.07 MB (local),       24.29 GB (total)
 SF USED    *         0.14 MB
 GA USED    *         0.01 MB       (max)       0.00 MB       (current)
 **********************************************************************************************************************************


 PROGRAM * HESSIAN

 PROGRAM * MCKINLEY (Hessian of the energy)     Author: A. Bernhardsson, R. Lindh

 Orbitals from record         2100.2

 Number of closed-shell orbitals: 24 ( 24 )
 Number of occupied orbitals:     24 ( 24 )

 Number of electrons= 48     Singlet     Space symmetry=1      Wavefunction type: CLOSED          


 McKinley needed    220.73 seconds of CPU time

 Entering CPHF calculation

 CPHF needed 436 iterations for 54 perturbations.  Total CPU time:  667.91 sec


 HF-SCF hessian saved to record  5300.2

 PROGRAM * FREQUENCIES (Calculation of harmonic vibrational spectra for HF-SCF)


 Permanent Dipole Moment [debye]
   1-  3    0.000000    0.000000    0.000000

 Dipole Moment Norm    0.0000000 [debye]

 Dipole Moment Derivatives [debye/ang]
              1             2             3             4             5             6             7             8
    1     0.0000000     0.0000000     0.0000000     0.0000000     0.0000000     0.0000000     0.0000000     0.0000000
    2     0.0000000     0.0000000     0.0000000     0.0000000     0.0000000     0.0000000     0.0000000     0.0000000
    3     0.0000000     0.0000000     0.0000000     0.0000000     0.0000000     0.0000000     0.0000000     0.0000000
              9            10            11            12            13            14            15            16
    1     0.0000000     0.0000000     0.0000000     0.0000000     0.0000000     0.0000000     0.0000000     0.0000000
    2     0.0000000     0.0000000     0.0000000     0.0000000     0.0000000     0.0000000     0.0000000     0.0000000
    3     0.0000000     0.0000000     0.0000000     0.0000000     0.0000000     0.0000000     0.0000000     0.0000000
             17            18            19            20            21            22            23            24
    1     0.0000000     0.0000000     0.0000000     0.0000000     0.0000000     0.0000000     0.0000000     0.0000000
    2     0.0000000     0.0000000     0.0000000     0.0000000     0.0000000     0.0000000     0.0000000     0.0000000
    3     0.0000000     0.0000000     0.0000000     0.0000000     0.0000000     0.0000000     0.0000000     0.0000000
             25            26            27            28            29            30            31            32
    1     0.0000000     0.0000000     0.0000000     0.0000000     0.0000000     0.0000000     0.0000000     0.0000000
    2     0.0000000     0.0000000     0.0000000     0.0000000     0.0000000     0.0000000     0.0000000     0.0000000
    3     0.0000000     0.0000000     0.0000000     0.0000000     0.0000000     0.0000000     0.0000000     0.0000000
             33            34            35            36            37            38            39            40
    1     0.0000000     0.0000000     0.0000000     0.0000000     0.0000000     0.0000000     0.0000000     0.0000000
    2     0.0000000     0.0000000     0.0000000     0.0000000     0.0000000     0.0000000     0.0000000     0.0000000
    3     0.0000000     0.0000000     0.0000000     0.0000000     0.0000000     0.0000000     0.0000000     0.0000000
             41            42            43            44            45            46            47            48
    1     0.0000000     0.0000000     0.0000000     0.0000000     0.0000000     0.0000000     0.0000000     0.0000000
    2     0.0000000     0.0000000     0.0000000     0.0000000     0.0000000     0.0000000     0.0000000     0.0000000
    3     0.0000000     0.0000000     0.0000000     0.0000000     0.0000000     0.0000000     0.0000000     0.0000000
             49            50            51            52            53            54
    1     0.0000000     0.0000000     0.0000000     0.0000000     0.0000000     0.0000000
    2     0.0000000     0.0000000     0.0000000     0.0000000     0.0000000     0.0000000
    3     0.0000000     0.0000000     0.0000000     0.0000000     0.0000000     0.0000000

 Projecting out rotations and translations

 Force Constants (Second Derivatives of the Energy) in [a.u.]
                             CX1         CY1         CZ1         CX2         CY2     
           CX1           0.5101731
           CY1          -0.0000001   0.6317227
           CZ1          -0.0000000   0.0326899   0.6307462
           CX2          -0.1750726   0.0299817  -0.0433071   0.6006029
           CY2           0.0306622  -0.1078650   0.0169170   0.0283102   0.6317227
           CZ2          -0.0456036   0.0180957  -0.1237400  -0.0522097  -0.0163450
           CX3           0.0019066  -0.0111109  -0.0347735  -0.0980737   0.0006805
           CY3          -0.0013572   0.0065074   0.0120461  -0.0006805  -0.1078650
           CZ3          -0.0057998  -0.0048477  -0.0215183  -0.0011483  -0.0350128
           CX4           0.0009031   0.0000000   0.0000000   0.0019066   0.0013572
           CY4           0.0000000  -0.0005744   0.0014147   0.0111108   0.0065074
           CZ4           0.0000000   0.0014147   0.0028606   0.0347735   0.0120462
           CX5           0.0019066   0.0111109   0.0347735   0.0023712   0.0012252
           CY5           0.0013572   0.0065074   0.0120461   0.0012252  -0.0005744
           CZ5           0.0057998  -0.0048477  -0.0215184  -0.0008476  -0.0007074
           CX6          -0.1750725  -0.0299817   0.0433071  -0.0332308  -0.0097537
           CY6          -0.0306622  -0.1078650   0.0169171   0.0097536   0.0065074
           CZ6           0.0456037   0.0180958  -0.1237400  -0.0144869  -0.0071984
           HX7           0.0011832  -0.0003160   0.0001937   0.0017023  -0.0004904
           HY7           0.0005666  -0.0005110  -0.0020811  -0.0114248   0.0044081
           HZ7           0.0026333  -0.0040970  -0.0070300  -0.0313253   0.0150447
           HX8          -0.0014567   0.0333527   0.0005304  -0.0605967   0.0112022
           HY8           0.0001414  -0.0122089  -0.0000036   0.0135365  -0.3179806
           HZ8          -0.0012908   0.0203076  -0.0000251   0.0022133  -0.0064675
           HX9          -0.0244059  -0.0127840   0.0162517  -0.2339070  -0.0768368
           HY9           0.0115591   0.0044081  -0.0065186  -0.0796024  -0.0940738
           HZ9          -0.0163921  -0.0079471   0.0103240   0.1016155   0.0443618
           HX10         -0.0567630   0.0000001  -0.0000000  -0.0007123   0.0342633
           HY10          0.0000001  -0.3179806   0.0156306   0.0000676  -0.0122088
           HZ10         -0.0000000   0.0129352  -0.0618745   0.0001006   0.0187304
           HX11         -0.0579038   0.0000000   0.0000000   0.0015807  -0.0132744
           HY11          0.0000000  -0.0940738  -0.0919170   0.0001343   0.0044081
           HZ11          0.0000000  -0.0887235  -0.2925747   0.0012483  -0.0070977
           HX12         -0.0002100   0.0000000  -0.0000000   0.0012144  -0.0000686
           HY12         -0.0000000   0.0002645   0.0001558   0.0005425  -0.0000125
           HZ12          0.0000000   0.0000085  -0.0002749  -0.0007732   0.0010383
           HX13         -0.0005119  -0.0000000  -0.0000000  -0.0062008  -0.0033901
           HY13         -0.0000000   0.0000054  -0.0001700  -0.0020856  -0.0005110
           HZ13         -0.0000000  -0.0001907   0.0009897   0.0040695   0.0023222
           HX14          0.0011832   0.0003160  -0.0001937   0.0006143  -0.0001651
           HY14         -0.0005667  -0.0005110  -0.0020811  -0.0001472   0.0000054
           HZ14         -0.0026333  -0.0040970  -0.0070300  -0.0006502   0.0000953
           HX15          0.0000016   0.0008649  -0.0000730  -0.0002587   0.0000074
           HY15         -0.0001934  -0.0000125   0.0007381   0.0001349   0.0002645
           HZ15         -0.0006798  -0.0005786   0.0020533   0.0000281  -0.0000043
           HX16         -0.0014566  -0.0333527  -0.0005304   0.0018663  -0.0009335
           HY16         -0.0001414  -0.0122089  -0.0000036   0.0007359  -0.0000125
           HZ16          0.0012908   0.0203077  -0.0000251  -0.0010036  -0.0004597
           HX17         -0.0244059   0.0127839  -0.0162517  -0.0037526  -0.0037061
           HY17         -0.0115591   0.0044081  -0.0065186  -0.0015190  -0.0005110
           HZ17          0.0163921  -0.0079471   0.0103240   0.0030433   0.0017748
           HX18          0.0000016  -0.0008649   0.0000730  -0.0000538   0.0009106
           HY18          0.0001934  -0.0000125   0.0007381  -0.0000738  -0.0122089
           HZ18          0.0006797  -0.0005786   0.0020533  -0.0013403  -0.0390381
                             CZ2         CX3         CY3         CZ3         CX4     
           CZ2           0.5403164
           CX3           0.0011483   0.6006031
           CY3          -0.0350128  -0.0283104   0.6317226
           CZ3          -0.2007389   0.0522097  -0.0163448   0.5403163
           CX4           0.0057998  -0.1750726  -0.0306623   0.0456036   0.5101731
           CY4          -0.0048477  -0.0299818  -0.1078651   0.0180958   0.0000001
           CZ4          -0.0215184   0.0433070   0.0169171  -0.1237399   0.0000000
           CX5          -0.0008476  -0.0332309   0.0097537  -0.0144868  -0.1750725
           CY5          -0.0007074  -0.0097537   0.0065074  -0.0071984   0.0306624
           CZ5           0.0013925   0.0144868  -0.0071985   0.0136191  -0.0456036
           CX6           0.0144869   0.0023712  -0.0012252   0.0008476   0.0019066
           CY6          -0.0071984  -0.0012252  -0.0005744  -0.0007074  -0.0013572
           CZ6           0.0136191   0.0008476  -0.0007074   0.0013925  -0.0057998
           HX7           0.0013185  -0.2339073   0.0768366  -0.1016156  -0.0244059
           HY7          -0.0067512   0.0796022  -0.0940735   0.0459583  -0.0115591
           HZ7          -0.0157842  -0.1016156   0.0443616  -0.1165715   0.0163921
           HX8           0.0022133  -0.0000538  -0.0009106  -0.0004808   0.0000016
           HY8          -0.0078152   0.0000738  -0.0122089  -0.0001206  -0.0001934
           HZ8          -0.0580409   0.0013404  -0.0390381  -0.0014280  -0.0006798
           HX9           0.1016155   0.0017022   0.0004904  -0.0013185   0.0011832
           HY9           0.0459585   0.0114248   0.0044081  -0.0067512  -0.0005666
           HZ9          -0.1165715   0.0313253   0.0150448  -0.0157842  -0.0026333
           HX10         -0.0017206   0.0012144   0.0000686   0.0013800  -0.0002100
           HY10          0.0001242  -0.0005425  -0.0000125  -0.0005365   0.0000000
           HZ10         -0.0007695   0.0007732   0.0010383   0.0008404  -0.0000000
           HX11         -0.0313955  -0.0062008   0.0033901  -0.0016298  -0.0005119
           HY11          0.0132698   0.0020856  -0.0005110   0.0005498   0.0000000
           HZ11         -0.0156627  -0.0040695   0.0023222   0.0003540   0.0000000
           HX12         -0.0013800  -0.0007122  -0.0342633   0.0017205  -0.0567631
           HY12         -0.0005365  -0.0000676  -0.0122089   0.0001242  -0.0000001
           HZ12          0.0008404  -0.0001006   0.0187304  -0.0007695   0.0000000
           HX13          0.0016298   0.0015807   0.0132743   0.0313955  -0.0579038
           HY13          0.0005498  -0.0001343   0.0044081   0.0132698  -0.0000000
           HZ13          0.0003540  -0.0012483  -0.0070977  -0.0156627  -0.0000000
           HX14         -0.0006502  -0.0037526   0.0037062  -0.0054830  -0.0244059
           HY14          0.0000850   0.0015190  -0.0005110   0.0015313   0.0115592
           HZ14         -0.0001365  -0.0030433   0.0017748  -0.0020942  -0.0163921
           HX15          0.0000281   0.0018663   0.0009335   0.0003969  -0.0014566
           HY15         -0.0000779  -0.0007359  -0.0000125  -0.0002015   0.0001413
           HZ15         -0.0002262   0.0010036  -0.0004597   0.0001886  -0.0012907
           HX16         -0.0003969  -0.0002587  -0.0000074  -0.0000281   0.0000016
           HY16         -0.0002015  -0.0001349   0.0002645  -0.0000779   0.0001934
           HZ16          0.0001886  -0.0000281  -0.0000043  -0.0002262   0.0006798
           HX17          0.0054830   0.0006143   0.0001651   0.0006502   0.0011832
           HY17          0.0015313   0.0001472   0.0000054   0.0000850   0.0005667
           HZ17         -0.0020942   0.0006502   0.0000953  -0.0001365   0.0026333
           HX18          0.0004808  -0.0605966  -0.0112017  -0.0022133  -0.0014567
           HY18         -0.0001206  -0.0135361  -0.3179806  -0.0078153  -0.0001414
           HZ18         -0.0014280  -0.0022133  -0.0064676  -0.0580409   0.0012908
                             CY4         CZ4         CX5         CY5         CZ5     
           CY4           0.6317225
           CZ4           0.0326899   0.6307466
           CX5           0.0299818  -0.0433070   0.6006032
           CY5          -0.1078651   0.0169171   0.0283103   0.6317225
           CZ5           0.0180958  -0.1237399  -0.0522098  -0.0163449   0.5403164
           CX6          -0.0111109  -0.0347735  -0.0980737   0.0006805   0.0011483
           CY6           0.0065074   0.0120462  -0.0006806  -0.1078651  -0.0350129
           CZ6          -0.0048477  -0.0215184  -0.0011483  -0.0350129  -0.2007389
           HX7           0.0127840  -0.0162517  -0.0037526  -0.0037062   0.0054830
           HY7           0.0044081  -0.0065186  -0.0015190  -0.0005110   0.0015313
           HZ7          -0.0079471   0.0103240   0.0030433   0.0017748  -0.0020942
           HX8           0.0008649  -0.0000730  -0.0002587   0.0000074   0.0000281
           HY8          -0.0000125   0.0007381   0.0001349   0.0002645  -0.0000779
           HZ8          -0.0005786   0.0020533   0.0000281  -0.0000043  -0.0002262
           HX9           0.0003160  -0.0001937   0.0006143  -0.0001651  -0.0006502
           HY9          -0.0005110  -0.0020811  -0.0001472   0.0000054   0.0000850
           HZ9          -0.0040970  -0.0070300  -0.0006502   0.0000953  -0.0001365
           HX10         -0.0000000   0.0000000   0.0012144  -0.0000686  -0.0013800
           HY10          0.0002645   0.0001558   0.0005425  -0.0000125  -0.0005365
           HZ10          0.0000085  -0.0002749  -0.0007732   0.0010383   0.0008404
           HX11         -0.0000000   0.0000000  -0.0062008  -0.0033901   0.0016298
           HY11          0.0000054  -0.0001700  -0.0020856  -0.0005110   0.0005498
           HZ11         -0.0001907   0.0009897   0.0040695   0.0023222   0.0003540
           HX12         -0.0000001   0.0000000  -0.0007122   0.0342633  -0.0017205
           HY12         -0.3179806   0.0156299   0.0000676  -0.0122089   0.0001242
           HZ12          0.0129344  -0.0618744   0.0001006   0.0187304  -0.0007695
           HX13         -0.0000000  -0.0000000   0.0015807  -0.0132743  -0.0313955
           HY13         -0.0940733  -0.0919164   0.0001343   0.0044081   0.0132698
           HZ13         -0.0887230  -0.2925753   0.0012483  -0.0070977  -0.0156627
           HX14         -0.0127839   0.0162517  -0.2339074  -0.0768363   0.1016157
           HY14          0.0044081  -0.0065186  -0.0796019  -0.0940733   0.0459582
           HZ14         -0.0079470   0.0103240   0.1016157   0.0443615  -0.1165716
           HX15          0.0333527   0.0005304  -0.0605966   0.0112014   0.0022133
           HY15         -0.0122089  -0.0000036   0.0135358  -0.3179806  -0.0078150
           HZ15          0.0203076  -0.0000251   0.0022133  -0.0064673  -0.0580409
           HX16         -0.0008649   0.0000730  -0.0000538   0.0009106   0.0004808
           HY16         -0.0000125   0.0007381  -0.0000738  -0.0122089  -0.0001206
           HZ16         -0.0005786   0.0020533  -0.0013404  -0.0390381  -0.0014280
           HX17         -0.0003160   0.0001937   0.0017023  -0.0004904   0.0013185
           HY17         -0.0005110  -0.0020811  -0.0114249   0.0044081  -0.0067512
           HZ17         -0.0040970  -0.0070300  -0.0313253   0.0150448  -0.0157842
           HX18         -0.0333527  -0.0005304   0.0018663  -0.0009335  -0.0003969
           HY18         -0.0122089  -0.0000036   0.0007359  -0.0000125  -0.0002015
           HZ18          0.0203076  -0.0000251  -0.0010036  -0.0004597   0.0001886
                             CX6         CY6         CZ6         HX7         HY7     
           CX6           0.6006030
           CY6          -0.0283102   0.6317226
           CZ6           0.0522098  -0.0163450   0.5403165
           HX7           0.0006143   0.0001651   0.0006502   0.2546269
           HY7           0.0001472   0.0000054   0.0000850  -0.0857005   0.0958221
           HZ7           0.0006502   0.0000953  -0.0001365   0.1108523  -0.0494792
           HX8           0.0018663   0.0009335   0.0003969   0.0001296  -0.0004463
           HY8          -0.0007359  -0.0000125  -0.0002015  -0.0006678   0.0007989
           HZ8           0.0010036  -0.0004597   0.0001886  -0.0003470   0.0008089
           HX9          -0.0037526   0.0037061  -0.0054830   0.0007331   0.0002065
           HY9           0.0015190  -0.0005110   0.0015313  -0.0002065   0.0000774
           HZ9          -0.0030433   0.0017748  -0.0020942  -0.0007230   0.0008308
           HX10         -0.0007122  -0.0342633   0.0017206  -0.0000122  -0.0003074
           HY10         -0.0000676  -0.0122089   0.0001242   0.0000619   0.0004801
           HZ10         -0.0001006   0.0187305  -0.0007695   0.0000496  -0.0002842
           HX11          0.0015807   0.0132744   0.0313954  -0.0000115  -0.0003729
           HY11         -0.0001343   0.0044081   0.0132698   0.0001457   0.0004940
           HZ11         -0.0012483  -0.0070977  -0.0156627   0.0000622  -0.0003836
           HX12          0.0012144   0.0000686   0.0013800   0.0012902   0.0004774
           HY12         -0.0005425  -0.0000125  -0.0005365  -0.0007843   0.0007989
           HZ12          0.0007732   0.0010383   0.0008404  -0.0005109  -0.0007909
           HX13         -0.0062008   0.0033901  -0.0016298   0.0009882   0.0008228
           HY13          0.0020856  -0.0005110   0.0005498   0.0006162   0.0000774
           HZ13         -0.0040695   0.0023222   0.0003540   0.0005757  -0.0002366
           HX14          0.0017023   0.0004904  -0.0013185  -0.0019514  -0.0005186
           HY14          0.0114249   0.0044081  -0.0067512   0.0005186   0.0004940
           HZ14          0.0313253   0.0150447  -0.0157842  -0.0011822  -0.0001311
           HX15         -0.0000538  -0.0009106  -0.0004808   0.0003665  -0.0003998
           HY15          0.0000738  -0.0122089  -0.0001206   0.0001030   0.0004801
           HZ15          0.0013403  -0.0390381  -0.0014280   0.0001484  -0.0001241
           HX16         -0.0605966  -0.0112019  -0.0022133  -0.0000182   0.0000149
           HY16         -0.0135363  -0.3179806  -0.0078150  -0.0001142  -0.0000284
           HZ16         -0.0022133  -0.0064672  -0.0580409  -0.0000931   0.0000086
           HX17         -0.2339072   0.0768366  -0.1016156   0.0000544   0.0000431
           HY17          0.0796022  -0.0940735   0.0459583   0.0000431  -0.0000415
           HZ17         -0.1016156   0.0443616  -0.1165716  -0.0001202   0.0000249
           HX18         -0.0002587  -0.0000074  -0.0000281   0.0023704   0.0303676
           HY18         -0.0001349   0.0002645  -0.0000779   0.0007115  -0.0131791
           HZ18         -0.0000281  -0.0000043  -0.0002262   0.0015101   0.0175327
                             HZ7         HX8         HY8         HZ8         HX9     
           HZ7           0.1266255
           HX8           0.0001591   0.0608146
           HY8          -0.0005201  -0.0150898   0.3490787
           HZ8           0.0017855   0.0019380   0.0087120   0.0630524
           HX9           0.0007230   0.0023704  -0.0007115  -0.0015102   0.2546266
           HY9           0.0008308  -0.0303676  -0.0131791   0.0175327   0.0857007
           HZ9           0.0010732  -0.0015101   0.0004108   0.0006266  -0.1108523
           HX10          0.0003671  -0.0053946   0.0022115  -0.0040990   0.0012902
           HY10          0.0000832   0.0024148   0.0009759   0.0011594   0.0007843
           HZ10          0.0002522  -0.0033134   0.0015115  -0.0011151   0.0005109
           HX11         -0.0023022   0.0014528   0.0001165   0.0009231   0.0009882
           HY11          0.0005147  -0.0009237   0.0007989  -0.0000180  -0.0006162
           HZ11         -0.0013047   0.0004170   0.0008384   0.0004622  -0.0005757
           HX12         -0.0010170   0.0001406   0.0006865   0.0004203  -0.0000122
           HY12         -0.0003182   0.0000658   0.0008657   0.0007548  -0.0000619
           HZ12          0.0006249   0.0002238  -0.0003204  -0.0002313  -0.0000496
           HX13         -0.0008703   0.0000057   0.0000411  -0.0003774  -0.0000115
           HY13         -0.0005942  -0.0000925   0.0004801   0.0004083  -0.0001457
           HZ13          0.0008181  -0.0000599  -0.0000952   0.0002343  -0.0000622
           HX14          0.0011822  -0.0000182   0.0001142   0.0000931   0.0000544
           HY14         -0.0001311  -0.0000149  -0.0000284   0.0000086  -0.0000431
           HZ14          0.0006352   0.0000931  -0.0000659   0.0000893   0.0001202
           HX15         -0.0001691   0.0000231  -0.0001786  -0.0000988  -0.0000182
           HY15          0.0000120  -0.0001786   0.0000464   0.0001031   0.0001142
           HZ15         -0.0001265  -0.0000988   0.0001031  -0.0000910   0.0000931
           HX16         -0.0000931  -0.0004173   0.0006208  -0.0000983   0.0003665
           HY16         -0.0000659  -0.0006208   0.0008656  -0.0004343  -0.0001030
           HZ16          0.0000893   0.0000983  -0.0004343   0.0003265  -0.0001484
           HX17         -0.0001202   0.0003665   0.0001030   0.0001484  -0.0019514
           HY17          0.0000249  -0.0003998   0.0004801  -0.0001241  -0.0005186
           HZ17          0.0001932  -0.0001691   0.0000120  -0.0001265   0.0011822
           HX18          0.0015101   0.0010247  -0.0002033   0.0003928   0.0001296
           HY18          0.0004108   0.0002033   0.0009759  -0.0026710   0.0006678
           HZ18          0.0006267  -0.0003928  -0.0026710  -0.0075344   0.0003470
                             HY9         HZ9         HX10        HY10        HZ10    
           HY9           0.0958224
           HZ9          -0.0494794   0.1266255
           HX10         -0.0004774   0.0010170   0.0641713
           HY10          0.0007989  -0.0003182  -0.0000001   0.3490787
           HZ10         -0.0007909   0.0006249  -0.0000000  -0.0174242   0.0596957
           HX11         -0.0008228   0.0008703  -0.0002452   0.0000000   0.0000000
           HY11          0.0000774  -0.0005942  -0.0000000  -0.0131791  -0.0350655
           HZ11         -0.0002366   0.0008181   0.0000000  -0.0008215   0.0032423
           HX12          0.0003074  -0.0003671  -0.0001481  -0.0000000   0.0000000
           HY12          0.0004801   0.0000832   0.0000000   0.0000464  -0.0002062
           HZ12         -0.0002842   0.0002522  -0.0000000  -0.0002062   0.0000801
           HX13          0.0003729   0.0023022   0.0001430  -0.0000000  -0.0000000
           HY13          0.0004940   0.0005147   0.0000000  -0.0000284  -0.0000172
           HZ13         -0.0003836  -0.0013047  -0.0000000   0.0001319  -0.0000719
           HX14         -0.0000431   0.0001202  -0.0000122  -0.0000619  -0.0000496
           HY14         -0.0000415   0.0000249   0.0003074   0.0004801  -0.0002842
           HZ14          0.0000249   0.0001932  -0.0003671   0.0000832   0.0002522
           HX15         -0.0000149   0.0000931   0.0001406   0.0000658   0.0002238
           HY15         -0.0000284  -0.0000659   0.0006865   0.0008657  -0.0003204
           HZ15          0.0000086   0.0000893   0.0004203   0.0007548  -0.0002313
           HX16          0.0003998   0.0001691  -0.0053946  -0.0024148   0.0033134
           HY16          0.0004801   0.0000120  -0.0022115   0.0009759   0.0015115
           HZ16         -0.0001241  -0.0001265   0.0040990   0.0011594  -0.0011151
           HX17          0.0005186  -0.0011822   0.0012902  -0.0007843  -0.0005109
           HY17          0.0004940  -0.0001311   0.0004774   0.0007989  -0.0007909
           HZ17         -0.0001311   0.0006352  -0.0010170  -0.0003182   0.0006249
           HX18          0.0004463  -0.0001591   0.0001406  -0.0000658  -0.0002238
           HY18          0.0007989  -0.0005201  -0.0006865   0.0008656  -0.0003204
           HZ18          0.0008089   0.0017855  -0.0004203   0.0007548  -0.0002313
                             HX11        HY11        HZ11        HX12        HY12    
           HX11          0.0626249
           HY11         -0.0000000   0.0958224
           HZ11         -0.0000000   0.0989587   0.3186272
           HX12          0.0001430  -0.0000000   0.0000000   0.0641713
           HY12          0.0000000  -0.0000284   0.0001319   0.0000001   0.3490788
           HZ12         -0.0000000  -0.0000172  -0.0000719  -0.0000000  -0.0174234
           HX13          0.0002626  -0.0000000  -0.0000000  -0.0002452  -0.0000000
           HY13         -0.0000000  -0.0000415  -0.0000498  -0.0000000  -0.0131790
           HZ13          0.0000000  -0.0000498  -0.0000150   0.0000000  -0.0008216
           HX14         -0.0000115  -0.0001457  -0.0000622   0.0012902   0.0007843
           HY14          0.0003729   0.0004940  -0.0003836  -0.0004774   0.0007989
           HZ14          0.0023022   0.0005147  -0.0013047   0.0010170  -0.0003182
           HX15          0.0000057  -0.0000925  -0.0000599  -0.0053946   0.0024148
           HY15          0.0000411   0.0004801  -0.0000952   0.0022115   0.0009759
           HZ15         -0.0003774   0.0004083   0.0002343  -0.0040990   0.0011594
           HX16          0.0014528   0.0009237  -0.0004170   0.0001406  -0.0000658
           HY16         -0.0001165   0.0007989   0.0008384  -0.0006865   0.0008657
           HZ16         -0.0009231  -0.0000180   0.0004622  -0.0004203   0.0007548
           HX17          0.0009882   0.0006162   0.0005757  -0.0000122   0.0000619
           HY17          0.0008228   0.0000774  -0.0002366  -0.0003074   0.0004801
           HZ17         -0.0008703  -0.0005942   0.0008181   0.0003671   0.0000832
           HX18          0.0000057   0.0000925   0.0000599  -0.0053946  -0.0024148
           HY18         -0.0000411   0.0004801  -0.0000952  -0.0022115   0.0009759
           HZ18          0.0003774   0.0004083   0.0002343   0.0040990   0.0011594
                             HZ12        HX13        HY13        HZ13        HX14    
           HZ12          0.0596957
           HX13         -0.0000000   0.0626249
           HY13         -0.0350655   0.0000000   0.0958219
           HZ13          0.0032422   0.0000000   0.0989581   0.3186278
           HX14          0.0005109   0.0009882  -0.0006162  -0.0005757   0.2546271
           HY14         -0.0007909  -0.0008228   0.0000774  -0.0002366   0.0857002
           HZ14          0.0006249   0.0008703  -0.0005943   0.0008182  -0.1108525
           HX15         -0.0033134   0.0014528  -0.0009237   0.0004170   0.0023703
           HY15          0.0015115   0.0001165   0.0007989   0.0008384  -0.0007115
           HZ15         -0.0011151   0.0009231  -0.0000180   0.0004622  -0.0015101
           HX16         -0.0002238   0.0000057   0.0000925   0.0000599   0.0001296
           HY16         -0.0003204  -0.0000411   0.0004801  -0.0000952   0.0006678
           HZ16         -0.0002313   0.0003774   0.0004083   0.0002343   0.0003470
           HX17          0.0000496  -0.0000115   0.0001457   0.0000622   0.0007331
           HY17         -0.0002842  -0.0003729   0.0004940  -0.0003836   0.0002065
           HZ17          0.0002522  -0.0023022   0.0005147  -0.0013047   0.0007230
           HX18          0.0033134   0.0014528   0.0009237  -0.0004170   0.0003665
           HY18          0.0015115  -0.0001165   0.0007989   0.0008384  -0.0001030
           HZ18         -0.0011151  -0.0009231  -0.0000180   0.0004622  -0.0001484
                             HY14        HZ14        HX15        HY15        HZ15    
           HY14          0.0958218
           HZ14         -0.0494790   0.1266256
           HX15         -0.0303676  -0.0015101   0.0608146
           HY15         -0.0131790   0.0004108  -0.0150890   0.3490788
           HZ15          0.0175328   0.0006266   0.0019380   0.0087118   0.0630523
           HX16          0.0004463  -0.0001591   0.0010247  -0.0002033   0.0003928
           HY16          0.0007989  -0.0005201   0.0002033   0.0009759  -0.0026710
           HZ16          0.0008089   0.0017855  -0.0003928  -0.0026710  -0.0075344
           HX17         -0.0002065  -0.0007230   0.0001296  -0.0006678  -0.0003470
           HY17          0.0000774   0.0008308  -0.0004463   0.0007989   0.0008089
           HZ17          0.0008308   0.0010732   0.0001591  -0.0005201   0.0017855
           HX18          0.0003998   0.0001691  -0.0004173   0.0006208  -0.0000983
           HY18          0.0004801   0.0000120  -0.0006208   0.0008657  -0.0004343
           HZ18         -0.0001241  -0.0001265   0.0000983  -0.0004343   0.0003265
                             HX16        HY16        HZ16        HX17        HY17    
           HX16          0.0608146
           HY16          0.0150895   0.3490788
           HZ16         -0.0019380   0.0087117   0.0630524
           HX17          0.0023704   0.0007115   0.0015101   0.2546269
           HY17          0.0303676  -0.0131791   0.0175328  -0.0857005   0.0958221
           HZ17          0.0015101   0.0004108   0.0006266   0.1108524  -0.0494792
           HX18          0.0000231   0.0001786   0.0000988  -0.0000182   0.0000149
           HY18          0.0001786   0.0000464   0.0001031  -0.0001142  -0.0000284
           HZ18          0.0000988   0.0001031  -0.0000910  -0.0000931   0.0000086
                             HZ17        HX18        HY18        HZ18    
           HZ17          0.1266256
           HX18         -0.0000931   0.0608146
           HY18         -0.0000659   0.0150893   0.3490788
           HZ18          0.0000893  -0.0019380   0.0087121   0.0630524


 Atomic Masses
   1- 10   12.000000   12.000000   12.000000   12.000000   12.000000   12.000000    1.007825    1.007825    1.007825    1.007825
  11- 18    1.007825    1.007825    1.007825    1.007825    1.007825    1.007825    1.007825    1.007825

 Mass weighted Second Derivative Matrix
                             CX1         CY1         CZ1         CX2         CY2     
           CX1           0.0425144
           CY1          -0.0000000   0.0526436
           CZ1          -0.0000000   0.0027242   0.0525622
           CX2          -0.0145894   0.0024985  -0.0036089   0.0500502
           CY2           0.0025552  -0.0089887   0.0014098   0.0023592   0.0526436
           CZ2          -0.0038003   0.0015080  -0.0103117  -0.0043508  -0.0013621
           CX3           0.0001589  -0.0009259  -0.0028978  -0.0081728   0.0000567
           CY3          -0.0001131   0.0005423   0.0010038  -0.0000567  -0.0089888
           CZ3          -0.0004833  -0.0004040  -0.0017932  -0.0000957  -0.0029177
           CX4           0.0000753   0.0000000   0.0000000   0.0001589   0.0001131
           CY4           0.0000000  -0.0000479   0.0001179   0.0009259   0.0005423
           CZ4           0.0000000   0.0001179   0.0002384   0.0028978   0.0010039
           CX5           0.0001589   0.0009259   0.0028978   0.0001976   0.0001021
           CY5           0.0001131   0.0005423   0.0010038   0.0001021  -0.0000479
           CZ5           0.0004833  -0.0004040  -0.0017932  -0.0000706  -0.0000589
           CX6          -0.0145894  -0.0024985   0.0036089  -0.0027692  -0.0008128
           CY6          -0.0025552  -0.0089888   0.0014098   0.0008128   0.0005423
           CZ6           0.0038003   0.0015080  -0.0103117  -0.0012072  -0.0005999
           HX7           0.0003402  -0.0000909   0.0000557   0.0004895  -0.0001410
           HY7           0.0001629  -0.0001469  -0.0005984  -0.0032852   0.0012676
           HZ7           0.0007572  -0.0011781  -0.0020215  -0.0090077   0.0043262
           HX8          -0.0004189   0.0095906   0.0001525  -0.0174247   0.0032212
           HY8           0.0000407  -0.0035107  -0.0000010   0.0038925  -0.0914360
           HZ8          -0.0003712   0.0058395  -0.0000072   0.0006365  -0.0018597
           HX9          -0.0070180  -0.0036761   0.0046732  -0.0672605  -0.0220946
           HY9           0.0033238   0.0012676  -0.0018744  -0.0228898  -0.0270511
           HZ9          -0.0047136  -0.0022852   0.0029687   0.0292198   0.0127563
           HX10         -0.0163223   0.0000000  -0.0000000  -0.0002048   0.0098525
           HY10          0.0000000  -0.0914360   0.0044946   0.0000194  -0.0035107
           HZ10         -0.0000000   0.0037195  -0.0177922   0.0000289   0.0053860
           HX11         -0.0166504   0.0000000   0.0000000   0.0004545  -0.0038171
           HY11          0.0000000  -0.0270511  -0.0264309   0.0000386   0.0012676
           HZ11          0.0000000  -0.0255127  -0.0841305   0.0003590  -0.0020410
           HX12         -0.0000604   0.0000000  -0.0000000   0.0003492  -0.0000197
           HY12         -0.0000000   0.0000761   0.0000448   0.0001560  -0.0000036
           HZ12          0.0000000   0.0000025  -0.0000791  -0.0002223   0.0002986
           HX13         -0.0001472  -0.0000000  -0.0000000  -0.0017831  -0.0009748
           HY13         -0.0000000   0.0000015  -0.0000489  -0.0005997  -0.0001469
           HZ13         -0.0000000  -0.0000548   0.0002846   0.0011702   0.0006678
           HX14          0.0003402   0.0000909  -0.0000557   0.0001766  -0.0000475
           HY14         -0.0001629  -0.0001469  -0.0005984  -0.0000423   0.0000015
           HZ14         -0.0007572  -0.0011781  -0.0020215  -0.0001870   0.0000274
           HX15          0.0000005   0.0002487  -0.0000210  -0.0000744   0.0000021
           HY15         -0.0000556  -0.0000036   0.0002122   0.0000388   0.0000761
           HZ15         -0.0001955  -0.0001664   0.0005904   0.0000081  -0.0000012
           HX16         -0.0004189  -0.0095906  -0.0001525   0.0005367  -0.0002684
           HY16         -0.0000406  -0.0035107  -0.0000010   0.0002116  -0.0000036
           HZ16          0.0003712   0.0058395  -0.0000072  -0.0002886  -0.0001322
           HX17         -0.0070180   0.0036761  -0.0046732  -0.0010791  -0.0010657
           HY17         -0.0033239   0.0012676  -0.0018744  -0.0004368  -0.0001469
           HZ17          0.0047136  -0.0022852   0.0029687   0.0008751   0.0005104
           HX18          0.0000005  -0.0002487   0.0000210  -0.0000155   0.0002618
           HY18          0.0000556  -0.0000036   0.0002122  -0.0000212  -0.0035107
           HZ18          0.0001955  -0.0001664   0.0005904  -0.0003854  -0.0112255
                             CZ2         CX3         CY3         CZ3         CX4     
           CZ2           0.0450264
           CX3           0.0000957   0.0500503
           CY3          -0.0029177  -0.0023592   0.0526435
           CZ3          -0.0167282   0.0043508  -0.0013621   0.0450264
           CX4           0.0004833  -0.0145894  -0.0025552   0.0038003   0.0425144
           CY4          -0.0004040  -0.0024985  -0.0089888   0.0015080   0.0000000
           CZ4          -0.0017932   0.0036089   0.0014098  -0.0103117   0.0000000
           CX5          -0.0000706  -0.0027692   0.0008128  -0.0012072  -0.0145894
           CY5          -0.0000589  -0.0008128   0.0005423  -0.0005999   0.0025552
           CZ5           0.0001160   0.0012072  -0.0005999   0.0011349  -0.0038003
           CX6           0.0012072   0.0001976  -0.0001021   0.0000706   0.0001589
           CY6          -0.0005999  -0.0001021  -0.0000479  -0.0000589  -0.0001131
           CZ6           0.0011349   0.0000706  -0.0000589   0.0001160  -0.0004833
           HX7           0.0003791  -0.0672606   0.0220945  -0.0292198  -0.0070180
           HY7          -0.0019413   0.0228898  -0.0270511   0.0132154  -0.0033239
           HZ7          -0.0045388  -0.0292198   0.0127563  -0.0335204   0.0047136
           HX8           0.0006364  -0.0000155  -0.0002618  -0.0001383   0.0000005
           HY8          -0.0022473   0.0000212  -0.0035107  -0.0000347  -0.0000556
           HZ8          -0.0166898   0.0003854  -0.0112255  -0.0004106  -0.0001955
           HX9           0.0292198   0.0004895   0.0001410  -0.0003791   0.0003402
           HY9           0.0132155   0.0032852   0.0012676  -0.0019413  -0.0001629
           HZ9          -0.0335204   0.0090077   0.0043262  -0.0045388  -0.0007572
           HX10         -0.0004948   0.0003492   0.0000197   0.0003968  -0.0000604
           HY10          0.0000357  -0.0001560  -0.0000036  -0.0001543   0.0000000
           HZ10         -0.0002213   0.0002223   0.0002986   0.0002417  -0.0000000
           HX11         -0.0090278  -0.0017831   0.0009748  -0.0004687  -0.0001472
           HY11          0.0038158   0.0005997  -0.0001469   0.0001581   0.0000000
           HZ11         -0.0045038  -0.0011702   0.0006678   0.0001018   0.0000000
           HX12         -0.0003968  -0.0002048  -0.0098525   0.0004947  -0.0163223
           HY12         -0.0001543  -0.0000194  -0.0035107   0.0000357  -0.0000000
           HZ12          0.0002417  -0.0000289   0.0053860  -0.0002213   0.0000000
           HX13          0.0004687   0.0004545   0.0038171   0.0090278  -0.0166504
           HY13          0.0001581  -0.0000386   0.0012676   0.0038158  -0.0000000
           HZ13          0.0001018  -0.0003590  -0.0020410  -0.0045038  -0.0000000
           HX14         -0.0001870  -0.0010791   0.0010657  -0.0015766  -0.0070180
           HY14          0.0000244   0.0004368  -0.0001469   0.0004403   0.0033239
           HZ14         -0.0000392  -0.0008751   0.0005104  -0.0006022  -0.0047136
           HX15          0.0000081   0.0005367   0.0002684   0.0001141  -0.0004189
           HY15         -0.0000224  -0.0002116  -0.0000036  -0.0000580   0.0000406
           HZ15         -0.0000650   0.0002886  -0.0001322   0.0000542  -0.0003712
           HX16         -0.0001141  -0.0000744  -0.0000021  -0.0000081   0.0000005
           HY16         -0.0000579  -0.0000388   0.0000761  -0.0000224   0.0000556
           HZ16          0.0000542  -0.0000081  -0.0000012  -0.0000650   0.0001955
           HX17          0.0015766   0.0001766   0.0000475   0.0001870   0.0003402
           HY17          0.0004403   0.0000423   0.0000015   0.0000244   0.0001629
           HZ17         -0.0006022   0.0001870   0.0000274  -0.0000392   0.0007572
           HX18          0.0001383  -0.0174247  -0.0032211  -0.0006364  -0.0004189
           HY18         -0.0000347  -0.0038923  -0.0914360  -0.0022473  -0.0000406
           HZ18         -0.0004106  -0.0006364  -0.0018598  -0.0166898   0.0003712
                             CY4         CZ4         CX5         CY5         CZ5     
           CY4           0.0526435
           CZ4           0.0027242   0.0525622
           CX5           0.0024985  -0.0036089   0.0500503
           CY5          -0.0089888   0.0014098   0.0023592   0.0526435
           CZ5           0.0015080  -0.0103117  -0.0043508  -0.0013621   0.0450264
           CX6          -0.0009259  -0.0028978  -0.0081728   0.0000567   0.0000957
           CY6           0.0005423   0.0010039  -0.0000567  -0.0089888  -0.0029177
           CZ6          -0.0004040  -0.0017932  -0.0000957  -0.0029177  -0.0167282
           HX7           0.0036761  -0.0046732  -0.0010791  -0.0010657   0.0015766
           HY7           0.0012676  -0.0018744  -0.0004368  -0.0001469   0.0004403
           HZ7          -0.0022852   0.0029687   0.0008751   0.0005104  -0.0006022
           HX8           0.0002487  -0.0000210  -0.0000744   0.0000021   0.0000081
           HY8          -0.0000036   0.0002122   0.0000388   0.0000761  -0.0000224
           HZ8          -0.0001664   0.0005904   0.0000081  -0.0000012  -0.0000650
           HX9           0.0000909  -0.0000557   0.0001766  -0.0000475  -0.0001870
           HY9          -0.0001469  -0.0005984  -0.0000423   0.0000015   0.0000244
           HZ9          -0.0011781  -0.0020215  -0.0001870   0.0000274  -0.0000392
           HX10         -0.0000000   0.0000000   0.0003492  -0.0000197  -0.0003968
           HY10          0.0000761   0.0000448   0.0001560  -0.0000036  -0.0001543
           HZ10          0.0000025  -0.0000791  -0.0002223   0.0002986   0.0002417
           HX11         -0.0000000   0.0000000  -0.0017831  -0.0009748   0.0004687
           HY11          0.0000015  -0.0000489  -0.0005997  -0.0001469   0.0001581
           HZ11         -0.0000548   0.0002846   0.0011702   0.0006678   0.0001018
           HX12         -0.0000000   0.0000000  -0.0002048   0.0098525  -0.0004947
           HY12         -0.0914361   0.0044944   0.0000194  -0.0035107   0.0000357
           HZ12          0.0037193  -0.0177921   0.0000289   0.0053860  -0.0002213
           HX13         -0.0000000  -0.0000000   0.0004545  -0.0038171  -0.0090278
           HY13         -0.0270510  -0.0264308   0.0000386   0.0012676   0.0038158
           HZ13         -0.0255125  -0.0841307   0.0003590  -0.0020410  -0.0045038
           HX14         -0.0036760   0.0046732  -0.0672606  -0.0220945   0.0292198
           HY14          0.0012676  -0.0018744  -0.0228897  -0.0270510   0.0132154
           HZ14         -0.0022852   0.0029687   0.0292198   0.0127562  -0.0335204
           HX15          0.0095906   0.0001525  -0.0174247   0.0032210   0.0006364
           HY15         -0.0035107  -0.0000010   0.0038923  -0.0914361  -0.0022472
           HZ15          0.0058395  -0.0000072   0.0006364  -0.0018597  -0.0166898
           HX16         -0.0002487   0.0000210  -0.0000155   0.0002618   0.0001383
           HY16         -0.0000036   0.0002122  -0.0000212  -0.0035107  -0.0000347
           HZ16         -0.0001664   0.0005904  -0.0003854  -0.0112255  -0.0004106
           HX17         -0.0000909   0.0000557   0.0004895  -0.0001410   0.0003791
           HY17         -0.0001469  -0.0005984  -0.0032852   0.0012676  -0.0019413
           HZ17         -0.0011781  -0.0020215  -0.0090077   0.0043262  -0.0045388
           HX18         -0.0095906  -0.0001525   0.0005367  -0.0002684  -0.0001141
           HY18         -0.0035107  -0.0000010   0.0002116  -0.0000036  -0.0000579
           HZ18          0.0058395  -0.0000072  -0.0002886  -0.0001322   0.0000542
                             CX6         CY6         CZ6         HX7         HY7     
           CX6           0.0500503
           CY6          -0.0023592   0.0526435
           CZ6           0.0043508  -0.0013621   0.0450264
           HX7           0.0001766   0.0000475   0.0001870   0.2526499
           HY7           0.0000423   0.0000015   0.0000244  -0.0850351   0.0950781
           HZ7           0.0001870   0.0000274  -0.0000392   0.1099917  -0.0490950
           HX8           0.0005367   0.0002684   0.0001141   0.0001286  -0.0004428
           HY8          -0.0002116  -0.0000036  -0.0000579  -0.0006626   0.0007927
           HZ8           0.0002886  -0.0001322   0.0000542  -0.0003443   0.0008026
           HX9          -0.0010791   0.0010657  -0.0015766   0.0007274   0.0002049
           HY9           0.0004368  -0.0001469   0.0004403  -0.0002049   0.0000768
           HZ9          -0.0008751   0.0005104  -0.0006022  -0.0007174   0.0008244
           HX10         -0.0002048  -0.0098525   0.0004948  -0.0000121  -0.0003050
           HY10         -0.0000194  -0.0035107   0.0000357   0.0000614   0.0004764
           HZ10         -0.0000289   0.0053860  -0.0002213   0.0000492  -0.0002820
           HX11          0.0004545   0.0038171   0.0090278  -0.0000114  -0.0003700
           HY11         -0.0000386   0.0012676   0.0038158   0.0001446   0.0004901
           HZ11         -0.0003590  -0.0020410  -0.0045038   0.0000617  -0.0003806
           HX12          0.0003492   0.0000197   0.0003968   0.0012801   0.0004737
           HY12         -0.0001560  -0.0000036  -0.0001543  -0.0007782   0.0007927
           HZ12          0.0002223   0.0002986   0.0002417  -0.0005070  -0.0007848
           HX13         -0.0017831   0.0009748  -0.0004687   0.0009805   0.0008164
           HY13          0.0005997  -0.0001469   0.0001581   0.0006115   0.0000768
           HZ13         -0.0011702   0.0006678   0.0001018   0.0005712  -0.0002347
           HX14          0.0004895   0.0001410  -0.0003791  -0.0019362  -0.0005146
           HY14          0.0032852   0.0012676  -0.0019413   0.0005146   0.0004901
           HZ14          0.0090077   0.0043261  -0.0045388  -0.0011730  -0.0001301
           HX15         -0.0000155  -0.0002619  -0.0001383   0.0003637  -0.0003967
           HY15          0.0000212  -0.0035107  -0.0000347   0.0001022   0.0004764
           HZ15          0.0003854  -0.0112255  -0.0004106   0.0001472  -0.0001231
           HX16         -0.0174247  -0.0032211  -0.0006364  -0.0000180   0.0000148
           HY16         -0.0038924  -0.0914360  -0.0022472  -0.0001133  -0.0000282
           HZ16         -0.0006364  -0.0018597  -0.0166898  -0.0000924   0.0000085
           HX17         -0.0672605   0.0220945  -0.0292198   0.0000539   0.0000428
           HY17          0.0228898  -0.0270511   0.0132154   0.0000428  -0.0000412
           HZ17         -0.0292198   0.0127563  -0.0335204  -0.0001193   0.0000247
           HX18         -0.0000744  -0.0000021  -0.0000081   0.0023520   0.0301318
           HY18         -0.0000388   0.0000761  -0.0000224   0.0007060  -0.0130767
           HZ18         -0.0000081  -0.0000012  -0.0000650   0.0014984   0.0173966
                             HZ7         HX8         HY8         HZ8         HX9     
           HZ7           0.1256423
           HX8           0.0001579   0.0603424
           HY8          -0.0005161  -0.0149727   0.3463684
           HZ8           0.0017716   0.0019229   0.0086443   0.0625628
           HX9           0.0007174   0.0023520  -0.0007060  -0.0014984   0.2526496
           HY9           0.0008244  -0.0301318  -0.0130768   0.0173966   0.0850353
           HZ9           0.0010649  -0.0014984   0.0004076   0.0006218  -0.1099916
           HX10          0.0003642  -0.0053527   0.0021943  -0.0040672   0.0012801
           HY10          0.0000826   0.0023960   0.0009684   0.0011504   0.0007782
           HZ10          0.0002502  -0.0032877   0.0014998  -0.0011064   0.0005070
           HX11         -0.0022843   0.0014415   0.0001156   0.0009159   0.0009805
           HY11          0.0005107  -0.0009165   0.0007927  -0.0000178  -0.0006115
           HZ11         -0.0012946   0.0004138   0.0008318   0.0004586  -0.0005712
           HX12         -0.0010091   0.0001395   0.0006812   0.0004171  -0.0000121
           HY12         -0.0003158   0.0000652   0.0008589   0.0007489  -0.0000614
           HZ12          0.0006200   0.0002220  -0.0003179  -0.0002295  -0.0000492
           HX13         -0.0008635   0.0000056   0.0000408  -0.0003745  -0.0000114
           HY13         -0.0005896  -0.0000917   0.0004764   0.0004051  -0.0001446
           HZ13          0.0008118  -0.0000595  -0.0000945   0.0002325  -0.0000617
           HX14          0.0011730  -0.0000180   0.0001133   0.0000924   0.0000539
           HY14         -0.0001301  -0.0000148  -0.0000282   0.0000085  -0.0000428
           HZ14          0.0006302   0.0000924  -0.0000654   0.0000886   0.0001193
           HX15         -0.0001678   0.0000229  -0.0001772  -0.0000981  -0.0000180
           HY15          0.0000119  -0.0001772   0.0000460   0.0001023   0.0001133
           HZ15         -0.0001256  -0.0000981   0.0001023  -0.0000903   0.0000924
           HX16         -0.0000924  -0.0004140   0.0006159  -0.0000975   0.0003637
           HY16         -0.0000654  -0.0006159   0.0008589  -0.0004310  -0.0001022
           HZ16          0.0000886   0.0000975  -0.0004310   0.0003240  -0.0001472
           HX17         -0.0001193   0.0003637   0.0001022   0.0001472  -0.0019362
           HY17          0.0000247  -0.0003967   0.0004764  -0.0001231  -0.0005146
           HZ17          0.0001917  -0.0001678   0.0000119  -0.0001256   0.0011730
           HX18          0.0014984   0.0010168  -0.0002017   0.0003898   0.0001286
           HY18          0.0004076   0.0002017   0.0009684  -0.0026502   0.0006626
           HZ18          0.0006218  -0.0003898  -0.0026502  -0.0074759   0.0003443
                             HY9         HZ9         HX10        HY10        HZ10    
           HY9           0.0950784
           HZ9          -0.0490952   0.1256424
           HX10         -0.0004737   0.0010091   0.0636730
           HY10          0.0007927  -0.0003158  -0.0000001   0.3463684
           HZ10         -0.0007848   0.0006200  -0.0000000  -0.0172889   0.0592322
           HX11         -0.0008164   0.0008635  -0.0002433   0.0000000   0.0000000
           HY11          0.0000768  -0.0005896  -0.0000000  -0.0130768  -0.0347932
           HZ11         -0.0002347   0.0008118   0.0000000  -0.0008152   0.0032171
           HX12          0.0003050  -0.0003642  -0.0001470  -0.0000000   0.0000000
           HY12          0.0004764   0.0000826   0.0000000   0.0000460  -0.0002046
           HZ12         -0.0002820   0.0002503  -0.0000000  -0.0002046   0.0000795
           HX13          0.0003700   0.0022843   0.0001419  -0.0000000  -0.0000000
           HY13          0.0004901   0.0005107   0.0000000  -0.0000282  -0.0000171
           HZ13         -0.0003806  -0.0012946  -0.0000000   0.0001309  -0.0000714
           HX14         -0.0000428   0.0001193  -0.0000121  -0.0000614  -0.0000492
           HY14         -0.0000412   0.0000247   0.0003050   0.0004764  -0.0002820
           HZ14          0.0000247   0.0001917  -0.0003642   0.0000826   0.0002502
           HX15         -0.0000148   0.0000924   0.0001395   0.0000653   0.0002220
           HY15         -0.0000282  -0.0000654   0.0006812   0.0008589  -0.0003179
           HZ15          0.0000085   0.0000886   0.0004171   0.0007489  -0.0002295
           HX16          0.0003967   0.0001678  -0.0053527  -0.0023960   0.0032877
           HY16          0.0004764   0.0000119  -0.0021943   0.0009684   0.0014998
           HZ16         -0.0001231  -0.0001256   0.0040672   0.0011504  -0.0011064
           HX17          0.0005146  -0.0011730   0.0012801  -0.0007782  -0.0005070
           HY17          0.0004901  -0.0001301   0.0004737   0.0007927  -0.0007848
           HZ17         -0.0001301   0.0006302  -0.0010091  -0.0003158   0.0006200
           HX18          0.0004428  -0.0001579   0.0001395  -0.0000653  -0.0002220
           HY18          0.0007927  -0.0005161  -0.0006812   0.0008589  -0.0003179
           HZ18          0.0008026   0.0017716  -0.0004171   0.0007489  -0.0002295
                             HX11        HY11        HZ11        HX12        HY12    
           HX11          0.0621387
           HY11         -0.0000000   0.0950784
           HZ11         -0.0000000   0.0981904   0.3161533
           HX12          0.0001419  -0.0000000   0.0000000   0.0636730
           HY12          0.0000000  -0.0000282   0.0001309   0.0000001   0.3463685
           HZ12         -0.0000000  -0.0000171  -0.0000714  -0.0000000  -0.0172881
           HX13          0.0002606  -0.0000000  -0.0000000  -0.0002433  -0.0000000
           HY13         -0.0000000  -0.0000412  -0.0000494  -0.0000000  -0.0130767
           HZ13          0.0000000  -0.0000494  -0.0000149   0.0000000  -0.0008152
           HX14         -0.0000114  -0.0001446  -0.0000617   0.0012801   0.0007782
           HY14          0.0003700   0.0004901  -0.0003806  -0.0004737   0.0007927
           HZ14          0.0022843   0.0005107  -0.0012946   0.0010091  -0.0003158
           HX15          0.0000056  -0.0000917  -0.0000595  -0.0053527   0.0023960
           HY15          0.0000408   0.0004764  -0.0000945   0.0021943   0.0009684
           HZ15         -0.0003745   0.0004051   0.0002325  -0.0040672   0.0011504
           HX16          0.0014415   0.0009165  -0.0004138   0.0001395  -0.0000653
           HY16         -0.0001156   0.0007927   0.0008318  -0.0006812   0.0008589
           HZ16         -0.0009159  -0.0000178   0.0004586  -0.0004171   0.0007489
           HX17          0.0009805   0.0006115   0.0005712  -0.0000121   0.0000614
           HY17          0.0008164   0.0000768  -0.0002347  -0.0003050   0.0004764
           HZ17         -0.0008635  -0.0005896   0.0008118   0.0003642   0.0000826
           HX18          0.0000056   0.0000917   0.0000595  -0.0053527  -0.0023960
           HY18         -0.0000408   0.0004764  -0.0000945  -0.0021943   0.0009684
           HZ18          0.0003745   0.0004051   0.0002325   0.0040672   0.0011504
                             HZ12        HX13        HY13        HZ13        HX14    
           HZ12          0.0592322
           HX13         -0.0000000   0.0621386
           HY13         -0.0347933   0.0000000   0.0950779
           HZ13          0.0032170   0.0000000   0.0981898   0.3161539
           HX14          0.0005070   0.0009805  -0.0006115  -0.0005712   0.2526501
           HY14         -0.0007848  -0.0008164   0.0000768  -0.0002347   0.0850348
           HZ14          0.0006200   0.0008635  -0.0005896   0.0008118  -0.1099918
           HX15         -0.0032877   0.0014415  -0.0009165   0.0004138   0.0023519
           HY15          0.0014998   0.0001156   0.0007927   0.0008318  -0.0007060
           HZ15         -0.0011064   0.0009159  -0.0000178   0.0004586  -0.0014984
           HX16         -0.0002220   0.0000056   0.0000917   0.0000595   0.0001286
           HY16         -0.0003179  -0.0000408   0.0004764  -0.0000945   0.0006626
           HZ16         -0.0002295   0.0003745   0.0004051   0.0002325   0.0003443
           HX17          0.0000492  -0.0000114   0.0001446   0.0000617   0.0007274
           HY17         -0.0002820  -0.0003700   0.0004901  -0.0003806   0.0002049
           HZ17          0.0002503  -0.0022843   0.0005107  -0.0012946   0.0007174
           HX18          0.0032877   0.0014415   0.0009165  -0.0004138   0.0003637
           HY18          0.0014998  -0.0001156   0.0007927   0.0008318  -0.0001022
           HZ18         -0.0011064  -0.0009159  -0.0000178   0.0004586  -0.0001472
                             HY14        HZ14        HX15        HY15        HZ15    
           HY14          0.0950779
           HZ14         -0.0490949   0.1256425
           HX15         -0.0301319  -0.0014984   0.0603424
           HY15         -0.0130767   0.0004076  -0.0149718   0.3463685
           HZ15          0.0173966   0.0006218   0.0019229   0.0086441   0.0625628
           HX16          0.0004428  -0.0001579   0.0010168  -0.0002017   0.0003898
           HY16          0.0007927  -0.0005161   0.0002017   0.0009684  -0.0026502
           HZ16          0.0008026   0.0017716  -0.0003898  -0.0026502  -0.0074759
           HX17         -0.0002049  -0.0007174   0.0001286  -0.0006626  -0.0003443
           HY17          0.0000768   0.0008244  -0.0004428   0.0007927   0.0008026
           HZ17          0.0008244   0.0010649   0.0001579  -0.0005161   0.0017716
           HX18          0.0003967   0.0001678  -0.0004140   0.0006159  -0.0000975
           HY18          0.0004764   0.0000119  -0.0006159   0.0008589  -0.0004310
           HZ18         -0.0001231  -0.0001256   0.0000975  -0.0004310   0.0003240
                             HX16        HY16        HZ16        HX17        HY17    
           HX16          0.0603424
           HY16          0.0149724   0.3463685
           HZ16         -0.0019229   0.0086441   0.0625628
           HX17          0.0023520   0.0007060   0.0014984   0.2526499
           HY17          0.0301318  -0.0130767   0.0173966  -0.0850351   0.0950781
           HZ17          0.0014984   0.0004076   0.0006218   0.1099917  -0.0490950
           HX18          0.0000229   0.0001772   0.0000981  -0.0000180   0.0000148
           HY18          0.0001772   0.0000460   0.0001023  -0.0001133  -0.0000282
           HZ18          0.0000981   0.0001023  -0.0000903  -0.0000924   0.0000085
                             HZ17        HX18        HY18        HZ18    
           HZ17          0.1256424
           HX18         -0.0000924   0.0603424
           HY18         -0.0000654   0.0149722   0.3463685
           HZ18          0.0000886  -0.0019229   0.0086444   0.0625628


 Mass Weighted 2nd Derivative Matrix Eigenvalues
   1- 10    0.000000    0.000000    0.000000    0.000000    0.000000    0.000000    0.002304    0.002304    0.006121    0.007990
  11- 20    0.007990    0.011886    0.027180    0.027771    0.027771    0.031825    0.031825    0.037026    0.037026    0.045778
  21- 30    0.045778    0.048275    0.049972    0.051814    0.056782    0.062798    0.072805    0.072805    0.073711    0.073711
  31- 40    0.081269    0.085209    0.085910    0.085910    0.086208    0.086208    0.097541    0.097541    0.098718    0.098718
  41- 50    0.098834    0.101244    0.370533    0.370533    0.371247    0.371941    0.371941    0.372474    0.381956    0.381956
  51- 54    0.382117    0.382117    0.383801    0.385011

 Mass Weighted 2nd Derivative Matrix Eigenvectors
              1             2             3             4             5             6             7             8
    1     0.0000000     0.0000000    -0.3620509     0.3766332     0.0000000     0.0000000    -0.1253550    -0.0400026
    2     0.4400287     0.2765932     0.0523888     0.0503604     0.0419593    -0.2910491    -0.1078530     0.3379739
    3     0.2104893     0.0107666     0.0771092     0.0741236    -0.2234817     0.2054859    -0.0356111     0.1115920
    4    -0.0864466     0.1284056    -0.1988113     0.3394195    -0.0208983     0.0112630     0.0850969    -0.0858941
    5     0.2199102     0.5063187     0.1144767     0.0314324     0.2075096     0.0027815     0.3466203    -0.0755842
    6     0.2228822    -0.0683073    -0.1668920     0.1267701    -0.0839942     0.3693056    -0.0815017    -0.0988596
    7    -0.1466405     0.0159557     0.1038919     0.3270900    -0.1310578    -0.1501352     0.0196143     0.1193082
    8    -0.0117531     0.2823752     0.1946501     0.1085017     0.4120902     0.2500529    -0.2387678    -0.2623892
    9     0.2951524     0.0015545    -0.1919031     0.1027274    -0.1478156     0.2921663     0.1237008    -0.0333767
   10    -0.2330872     0.1443619     0.2671314     0.2898762    -0.1519559    -0.1388719    -0.1253550    -0.0400027
   11    -0.0232980    -0.1712935     0.2127356     0.2044990     0.4511205     0.2034936    -0.1078519     0.3379728
   12     0.1382190    -0.0590954     0.1021203     0.0981664    -0.1596602     0.2826253    -0.0356105     0.1115927
   13    -0.1466404     0.0159556     0.1038919     0.3270900    -0.1310578    -0.1501353     0.0850973    -0.0858935
   14     0.1968204    -0.4010188     0.1506478     0.2234270     0.2855703    -0.0903368     0.3466191    -0.0755832
   15     0.1258267     0.0199790     0.3461211     0.0455198    -0.2991481     0.1188052    -0.0815021    -0.0988599
   16    -0.0864467     0.1284058    -0.1988112     0.3394194    -0.0208983     0.0112630     0.0196135     0.1193091
   17     0.4284837    -0.1770756     0.0704744     0.1463578     0.0809897    -0.3376082    -0.2387668    -0.2623901
   18     0.0535562    -0.0498831     0.3711324     0.0695626    -0.2353265     0.1959447     0.1237002    -0.0333764
   19    -0.0613827     0.0352116     0.0633970     0.0864908    -0.0413459    -0.0389236    -0.0265552    -0.0165888
   20    -0.0478915     0.1282600     0.0689579     0.0276187     0.1528820     0.1318483    -0.1950574    -0.2143542
   21     0.0853178    -0.0181621    -0.1039838     0.0413161    -0.0122429     0.1206841    -0.0008544    -0.0227517
   22    -0.0503205     0.1221983    -0.0543408     0.0842940     0.0103107     0.0463415     0.1888790    -0.1123891
   23     0.0638941     0.1531636     0.0329192     0.0077483     0.0595835     0.0014661     0.1140768    -0.0248757
   24     0.0158484    -0.0682055    -0.0348949     0.0537589     0.0208358     0.1615629    -0.1432781    -0.0920820
   25    -0.0061665     0.0066246    -0.0909049     0.1066652    -0.0026914    -0.0013219    -0.0312560    -0.0018593
[...]
           HX18            -0.23676    -0.01987    -0.01738    -0.02082    -0.01774
           HY18             0.03139    -0.42104    -0.35088    -0.39067    -0.46030
           HZ18            -0.13669    -0.01241    -0.00891    -0.01202    -0.00974

                             41 A        42 A        43 A        44 A        45 A  
 Wavenumbers [cm-1]         3135.03     3137.27     3176.95     3176.95     3177.62
 Intensities [km/mol]          0.00        0.00        0.00        0.00        0.00
 Intensities [relative]        0.00        0.00        0.00        0.00        0.00
           CX1             -0.00036    -0.00000     0.00049     0.00052     0.00046
           CY1             -0.02190     0.01317    -0.01585     0.01485    -0.01727
           CZ1              0.01816    -0.02386    -0.03091     0.02896    -0.01585
           CX2              0.02083    -0.02066    -0.00799    -0.03580     0.01600
           CY2             -0.02911     0.01317    -0.00494    -0.02115     0.02039
           CZ2             -0.01219     0.01193     0.00542     0.02048    -0.00974
           CX3             -0.00543     0.02066    -0.03521    -0.01030    -0.02993
           CY3             -0.00721     0.01317     0.02078     0.00630     0.03765
           CZ3             -0.00255     0.01193    -0.02009    -0.00673    -0.01731
           CX4              0.00036     0.00000     0.00049     0.00052    -0.00046
           CY4              0.02190     0.01317    -0.01584     0.01485     0.01727
           CZ4             -0.01816    -0.02386    -0.03090     0.02896     0.01586
           CX5             -0.02083    -0.02066    -0.00799    -0.03580    -0.01600
           CY5              0.02911     0.01317    -0.00494    -0.02115    -0.02039
           CZ5              0.01219     0.01193     0.00541     0.02048     0.00974
           CX6              0.00543     0.02066    -0.03521    -0.01030     0.02993
           CY6              0.00721     0.01317     0.02078     0.00630    -0.03766
           CZ6              0.00255     0.01193    -0.02009    -0.00673     0.01731
           HX7              0.05774    -0.23502     0.42422     0.12685     0.37904
           HY7             -0.02728     0.10938    -0.18468    -0.05596    -0.16319
           HZ7              0.02944    -0.13569     0.24383     0.07684     0.21886
           HX8             -0.01757     0.00820    -0.00278    -0.00898     0.00935
           HY8              0.45497    -0.26614     0.01609     0.06889    -0.15325
           HZ8              0.00956    -0.00474     0.00010     0.00553    -0.00900
           HX9             -0.22583     0.23502     0.09907     0.43154    -0.20505
           HY9             -0.11016     0.10938     0.04387     0.18791    -0.08837
           HZ9              0.13151    -0.13569    -0.06087    -0.24830     0.11884
           HX10            -0.00126     0.00000    -0.00091    -0.00097     0.00330
           HY10             0.34229    -0.26613     0.05163    -0.04838     0.12977
           HZ10            -0.01504     0.00947    -0.00790     0.00740    -0.01067
           HX11             0.00241     0.00000    -0.00223    -0.00238    -0.00042
           HY11            -0.08288     0.10938     0.14081    -0.13195     0.07483
           HZ11            -0.19660     0.27138     0.37308    -0.34961     0.20068
           HX12             0.00126    -0.00000    -0.00091    -0.00097    -0.00330
           HY12            -0.34229    -0.26614     0.05161    -0.04837    -0.12977
           HZ12             0.01504     0.00947    -0.00790     0.00740     0.01067
           HX13            -0.00241     0.00000    -0.00223    -0.00238     0.00042
           HY13             0.08288     0.10938     0.14080    -0.13194    -0.07484
           HZ13             0.19660     0.27138     0.37304    -0.34959    -0.20071
           HX14             0.22582     0.23502     0.09907     0.43155     0.20505
           HY14             0.11016     0.10938     0.04387     0.18791     0.08837
           HZ14            -0.13150    -0.13569    -0.06086    -0.24830    -0.11884
           HX15             0.01757     0.00820    -0.00278    -0.00898    -0.00935
           HY15            -0.45497    -0.26614     0.01608     0.06890     0.15325
           HZ15            -0.00956    -0.00474     0.00010     0.00553     0.00900
           HX16            -0.00340    -0.00820    -0.00878    -0.00336     0.02006
           HY16            -0.11268    -0.26614    -0.06770    -0.02052     0.28302
           HZ16            -0.00401    -0.00474    -0.00551    -0.00046     0.01179
           HX17            -0.05774    -0.23502     0.42420     0.12686    -0.37906
           HY17             0.02728     0.10938    -0.18467    -0.05597     0.16320
           HZ17            -0.02943    -0.13569     0.24382     0.07685    -0.21888
           HX18             0.00340    -0.00820    -0.00878    -0.00336    -0.02006
           HY18             0.11268    -0.26614    -0.06772    -0.02052    -0.28302
           HZ18             0.00401    -0.00474    -0.00552    -0.00046    -0.01179

                             46 A        47 A        48 A  
 Wavenumbers [cm-1]         3177.62     3184.62     3189.64
 Intensities [km/mol]          0.00        0.00        0.00
 Intensities [relative]        0.00        0.00        0.00
           CX1             -0.00024     0.00000     0.00000
           CY1             -0.03351    -0.00965    -0.03157
           CZ1             -0.03077    -0.03117    -0.01852
           CX2             -0.02536     0.02699    -0.01604
           CY2             -0.03171     0.00965    -0.03157
           CZ2              0.01432    -0.01559     0.00926
           CX3             -0.00169     0.02700     0.01604
           CY3              0.00180    -0.00965    -0.03157
           CZ3             -0.00038     0.01559     0.00926
           CX4              0.00024     0.00000    -0.00000
           CY4              0.03351     0.00965    -0.03157
           CZ4              0.03077     0.03117    -0.01852
           CX5              0.02535    -0.02700    -0.01604
           CY5              0.03171    -0.00965    -0.03157
           CZ5             -0.01432     0.01559     0.00926
           CX6              0.00169    -0.02699     0.01604
           CY6             -0.00180     0.00965    -0.03157
           CZ6              0.00038    -0.01559     0.00926
           HX7              0.01838    -0.31641    -0.21070
           HY7             -0.00781     0.13779     0.09036
           HZ7              0.01007    -0.18268    -0.12165
           HX8             -0.01797     0.00313    -0.01942
           HY8              0.23833     0.01443     0.28559
           HZ8              0.00806    -0.00180     0.01121
           HX9              0.31933    -0.31641     0.21070
           HY9              0.13743    -0.13779     0.09036
           HZ9             -0.18407     0.18268    -0.12165
           HX10            -0.00170     0.00000    -0.00000
           HY10             0.25188    -0.01443     0.28559
           HZ10            -0.02071    -0.00361    -0.02242
           HX11             0.00022    -0.00000    -0.00000
           HY11             0.14523     0.13779     0.09036
           HZ11             0.38952     0.36536     0.24329
           HX12             0.00170    -0.00000     0.00000
           HY12            -0.25188     0.01443     0.28559
           HZ12             0.02071     0.00361    -0.02242
           HX13            -0.00022    -0.00000     0.00000
           HY13            -0.14525    -0.13779     0.09036
           HZ13            -0.38956    -0.36536     0.24329
           HX14            -0.31932     0.31641     0.21070
           HY14            -0.13742     0.13779     0.09036
           HZ14             0.18407    -0.18268    -0.12165
           HX15             0.01797    -0.00313    -0.01942
           HY15            -0.23832    -0.01443     0.28559
           HZ15            -0.00806     0.00180     0.01121
           HX16             0.00282    -0.00313     0.01942
           HY16             0.01355     0.01443     0.28559
           HZ16            -0.00265    -0.00180     0.01121
           HX17            -0.01840     0.31641    -0.21070
           HY17             0.00782    -0.13779     0.09036
           HZ17            -0.01008     0.18268    -0.12165
           HX18            -0.00282     0.00313     0.01942
           HY18            -0.01355    -0.01443     0.28559
           HZ18             0.00265     0.00180     0.01121


 Normal Modes of low/zero frequencies

                                  1           2           3           4           5
 Wavenumbers [cm-1]            0.00        0.00        0.00        0.00        0.00
 Intensities [km/mol]          0.00        0.00        0.00        0.00        0.00
 Intensities [relative]        0.00        0.00        0.00        0.00        0.00
           CX1              0.00000    -0.00000    -0.10452     0.10872    -0.00000
           CY1              0.12703     0.07985     0.01512     0.01454     0.01211
           CZ1              0.06076     0.00311     0.02226     0.02140    -0.06451
           CX2             -0.02495     0.03707    -0.05739     0.09798    -0.00603
           CY2              0.06348     0.14616     0.03305     0.00907     0.05990
           CZ2              0.06434    -0.01972    -0.04818     0.03660    -0.02425
           CX3             -0.04233     0.00461     0.02999     0.09442    -0.03783
           CY3             -0.00339     0.08151     0.05619     0.03132     0.11896
           CZ3              0.08520     0.00045    -0.05540     0.02965    -0.04267
           CX4             -0.06729     0.04167     0.07711     0.08368    -0.04387
           CY4             -0.00673    -0.04945     0.06141     0.05903     0.13023
           CZ4              0.03990    -0.01706     0.02948     0.02834    -0.04609
           CX5             -0.04233     0.00461     0.02999     0.09442    -0.03783
           CY5              0.05682    -0.11576     0.04349     0.06450     0.08244
           CZ5              0.03632     0.00577     0.09992     0.01314    -0.08636
           CX6             -0.02496     0.03707    -0.05739     0.09798    -0.00603
           CY6              0.12369    -0.05112     0.02034     0.04225     0.02338
           CZ6              0.01546    -0.01440     0.10714     0.02008    -0.06793
           HX7             -0.06114     0.03507     0.06315     0.08615    -0.04119
           HY7             -0.04771     0.12776     0.06869     0.02751     0.15229
           HZ7              0.08499    -0.01809    -0.10358     0.04116    -0.01220
           HX8             -0.05012     0.12172    -0.05413     0.08397     0.01027
           HY8              0.06365     0.15257     0.03279     0.00772     0.05935
           HZ8              0.01579    -0.06794    -0.03476     0.05355     0.02075
           HX9             -0.00614     0.00660    -0.09055     0.10625    -0.00268
           HY9              0.06581     0.23749     0.02941    -0.01025     0.05205
           HZ9              0.09865    -0.00489    -0.10831     0.03661    -0.02426
           HX10             0.02724    -0.08488    -0.11436     0.12344    -0.01445
           HY10             0.13030     0.08301     0.01399     0.01345     0.00922
           HZ10             0.11051     0.05120     0.00504     0.00485    -0.10845
           HX11             0.01071     0.02726    -0.16516     0.11043     0.02303
           HY11             0.17366     0.12493    -0.00102    -0.00098    -0.02907
           HZ11             0.04350    -0.01358     0.02823     0.02714    -0.04927
           HX12            -0.09453     0.12655     0.08696     0.06896    -0.02941
           HY12            -0.01000    -0.05261     0.06254     0.06012     0.13312
           HZ12            -0.00985    -0.06515     0.04670     0.04489    -0.00216
           HX13            -0.07799     0.01442     0.13775     0.08197    -0.06690
           HY13            -0.05336    -0.09453     0.07755     0.07455     0.17141
           HZ13             0.05716    -0.00037     0.02351     0.02260    -0.06133
           HX14            -0.06114     0.03507     0.06315     0.08615    -0.04119
           HY14             0.05449    -0.20709     0.04713     0.08382     0.09029
           HZ14             0.00202    -0.00906     0.16005     0.01312    -0.08635
           HX15            -0.01716    -0.08005     0.02673     0.10844    -0.05414
           HY15             0.05665    -0.12217     0.04374     0.06585     0.08299
           HZ15             0.08488     0.05399     0.08650    -0.00381    -0.13136
           HX16            -0.05012     0.12172    -0.05413     0.08397     0.01027
           HY16             0.12680    -0.05436     0.01947     0.04252     0.02104
           HZ16            -0.03548    -0.06236     0.12815     0.03623    -0.02507
           HX17            -0.00614     0.00660    -0.09055     0.10625    -0.00268
           HY17             0.16800    -0.09736     0.00785     0.04606    -0.00995
           HZ17             0.01568     0.00414     0.15532     0.00858    -0.09841
           HX18            -0.01716    -0.08005     0.02673     0.10844    -0.05414
           HY18            -0.00650     0.08476     0.05707     0.03105     0.12130
           HZ18             0.13615     0.04841    -0.07641     0.01351    -0.08554

                                  6
 Wavenumbers [cm-1]            0.00
 Intensities [km/mol]          0.00
 Intensities [relative]        0.00
           CX1             -0.00000
           CY1             -0.08402
           CZ1              0.05932
           CX2              0.00325
           CY2              0.00080
           CZ2              0.10661
           CX3             -0.04334
           CY3              0.07218
           CZ3              0.08434
           CX4             -0.04009
           CY4              0.05874
           CZ4              0.08159
           CX5             -0.04334
           CY5             -0.02608
           CZ5              0.03430
           CX6              0.00325
           CY6             -0.09746
           CZ6              0.05656
           HX7             -0.03877
           HY7              0.13134
           HZ7              0.12021
           HX8              0.04616
           HY8              0.00146
           HZ8              0.16093
           HX9             -0.00132
           HY9              0.01018
           HZ9              0.10564
           HX10            -0.04079
           HY10            -0.08751
           HZ10             0.00622
           HX11             0.03479
           HY11            -0.13380
           HZ11             0.07774
           HX12             0.00070
           HY12             0.06224
           HZ12             0.13469
           HX13            -0.07488
           HY13             0.10852
           HZ13             0.06316
           HX14            -0.03877
           HY14            -0.03545
           HZ14             0.03527
           HX15            -0.08625
           HY15            -0.02674
           HZ15            -0.02003
           HX16             0.04616
           HY16            -0.10161
           HZ16             0.10844
           HX17            -0.00132
           HY17            -0.15661
           HZ17             0.02069
           HX18            -0.08625
           HY18             0.07633
           HZ18             0.03246


 Frequencies dumped to record   5400.2

 Zero point energy:  0.18008206 [H]    39523.44 [1/CM]      472.81 [KJ/MOL]
 Frequency information read from record  5400.2


 **********************************************************************************************************************************
 DATASETS  * FILE   NREC   LENGTH (MB)   RECORD NAMES
              1      18       33.11       500      610      700      900      950      970     1000      129      960     1100   
                                          VAR    BASINP    GEOM    SYMINP    ZMAT    AOBASIS   BASIS     P2S    ABASIS      S 
                                         1400     1410     1200     1210     1080     1600     1650     1700   
                                           T        V       H0       H01     AOSYM     SMH    MOLCAS    OPER   

              2       7        4.03       700     1000      520     2100     5300     5450     5400   
                                         GEOM     BASIS   MCVARS     RHF     HESS     NMOD     FREQ   

              4       5      100.22      4100     4000     4200     4300     4400   

 PROGRAMS   *        TOTAL      FREQ      OPTG    HF-SCF       INT
 CPU TIMES  *      2173.89    888.66   1242.76     11.82     30.49
 REAL TIME  *      2299.83 SEC
 DISK USED  *        44.07 MB (local),       24.29 GB (total)
 SF USED    *       100.22 MB
 GA USED    *         0.01 MB       (max)       0.00 MB       (current)
 **********************************************************************************************************************************

 Dump information in style MOLDEN to c2h6.molden                                                                     

 Molecular orbitals read from record     2100.2  Type=RHF/CANONICAL  
 Occupation numbers read from record     2100.2  Type=RHF/RHF  
 Orbital energies read from record       2100.2  Type=RHF/CANONICAL  
 Redundancy group numbers read from rec  2100.2  Type=RHF/RHF  

 DUMP ORBITAL  1.1 AS ORBITAL    1  occ=    2.0000  eig=  -11.2088  GROUP=   2
 DUMP ORBITAL  2.1 AS ORBITAL    2  occ=    2.0000  eig=  -11.2086  GROUP=   2
 DUMP ORBITAL  3.1 AS ORBITAL    3  occ=    2.0000  eig=  -11.2086  GROUP=   2
 DUMP ORBITAL  4.1 AS ORBITAL    4  occ=    2.0000  eig=  -11.2079  GROUP=   2
 DUMP ORBITAL  5.1 AS ORBITAL    5  occ=    2.0000  eig=  -11.2079  GROUP=   2
 DUMP ORBITAL  6.1 AS ORBITAL    6  occ=    2.0000  eig=  -11.2076  GROUP=   2
 DUMP ORBITAL  7.1 AS ORBITAL    7  occ=    2.0000  eig=   -1.1117  GROUP=   2
 DUMP ORBITAL  8.1 AS ORBITAL    8  occ=    2.0000  eig=   -1.0002  GROUP=   2
 DUMP ORBITAL  9.1 AS ORBITAL    9  occ=    2.0000  eig=   -1.0002  GROUP=   2
 DUMP ORBITAL 10.1 AS ORBITAL   10  occ=    2.0000  eig=   -0.8277  GROUP=   2
 DUMP ORBITAL 11.1 AS ORBITAL   11  occ=    2.0000  eig=   -0.8277  GROUP=   2
 DUMP ORBITAL 12.1 AS ORBITAL   12  occ=    2.0000  eig=   -0.7499  GROUP=   2
 DUMP ORBITAL 13.1 AS ORBITAL   13  occ=    2.0000  eig=   -0.6472  GROUP=   2
 DUMP ORBITAL 14.1 AS ORBITAL   14  occ=    2.0000  eig=   -0.6073  GROUP=   2
 DUMP ORBITAL 15.1 AS ORBITAL   15  occ=    2.0000  eig=   -0.5957  GROUP=   2
 DUMP ORBITAL 16.1 AS ORBITAL   16  occ=    2.0000  eig=   -0.5957  GROUP=   2
 DUMP ORBITAL 17.1 AS ORBITAL   17  occ=    2.0000  eig=   -0.5234  GROUP=   2
 DUMP ORBITAL 18.1 AS ORBITAL   18  occ=    2.0000  eig=   -0.5234  GROUP=   2
 DUMP ORBITAL 19.1 AS ORBITAL   19  occ=    2.0000  eig=   -0.5114  GROUP=   2
 DUMP ORBITAL 20.1 AS ORBITAL   20  occ=    2.0000  eig=   -0.4799  GROUP=   2
 DUMP ORBITAL 21.1 AS ORBITAL   21  occ=    2.0000  eig=   -0.4799  GROUP=   2
 DUMP ORBITAL 22.1 AS ORBITAL   22  occ=    2.0000  eig=   -0.4486  GROUP=   2
 DUMP ORBITAL 23.1 AS ORBITAL   23  occ=    2.0000  eig=   -0.4246  GROUP=   2
 DUMP ORBITAL 24.1 AS ORBITAL   24  occ=    2.0000  eig=   -0.4246  GROUP=   2

 Total charge:      48.000000
 Frequency information read from record  5400.2

 **********************************************************************************************************************************

 HF/cc-pVTZ//HF/cc-pVTZ energy=   -234.286633386338

    OPTG(HF-SCF)          HF-SCF
   -234.28663339   -234.28654008
 **********************************************************************************************************************************
 Molpro calculation terminated
