
 Working directory              : /scratch/koe/tmpdir_612334/molpro.oOTNKSfrkV/
 Global scratch directory       : /scratch/koe/tmpdir_612334/molpro.oOTNKSfrkV/
 Wavefunction directory         : /home/koe/bachelorthesis/calc/MAIN/CH3OH/opt_calc_ccsd/
 Main file repository           : /home/koe/bachelorthesis/calc/MAIN/CH3OH/opt_calc_ccsd/

 id        : liedlgroup

 Nodes     nprocs
 rune03      12
 GA implementation: MPI file
 GA implementation (serial work in mppx): MPI file

 Using customized tuning parameters: mindgm=1; mindgv=20; mindgc=4; mindgr=1; noblas=0; minvec=7
 default implementation of scratch files=sf  


 Variables initialized (1015), CPU time= 0.01 sec
 ***,meoh ch3oh (methanol) vibrational spectrum
 memory,180,m
 
 angstrom
 orient,mass
 geometry={
 C
 O,C,B1
 H1,O,B2,C,A1
 H2,C,B3,O,A1,H1,180.0
 H3,C,B3,O,A1,H2,D1
 H4,C,B3,O,A1,H2,-D1
 }
 
 B1=                  1.42058959 ANG
 B2=                  0.95795180 ANG
 A1=                109.92087409 DEGREE
 B3=                  1.09221815 ANG
 D1=                119.50303567 DEGREE
 
 mass,iso
 basis=vtz
 
 {hf
 start,atden}
 ccsd(t)
 
 {optg, GRADIENT=3D-8, ENERGY=1D-10, STEP=3D-8}
 {frequencies, symm=auto, print=0, step=0.0001}
 
 put,molden,ch3oh.molden
 Commands initialized (818), CPU time= 0.01 sec, 672 directives.
 Default parameters read. Elapsed time= 0.19 sec

 Checking input...
 Passed
1


                                         ***  PROGRAM SYSTEM MOLPRO  ***
                                       Copyright, TTI GmbH Stuttgart, 2015
                                    Version 2022.1 linked Jan 25 2022 12:44:58


 **********************************************************************************************************************************
 LABEL *   meoh ch3oh (methanol) vibrational spectrum                                    
  64 bit mpp version                                                                     DATE: 30-May-22          TIME: 14:56:48  
 **********************************************************************************************************************************

 SHA1:             f3d4322b9bdbeed63a35be676bd653804e8a9433
 **********************************************************************************************************************************

 Memory per process:       180 MW
 Total memory per node:   2160 MW

 GA preallocation disabled
 GA check disabled

 Variable memory set to 180.0 MW

 ZCENTRE=MASS
 ZUNIT=ANG

 SETTING B1             =         1.42058959  ANG                             
 SETTING B2             =         0.95795180  ANG                             
 SETTING A1             =       109.92087409  DEGREE                          
 SETTING B3             =         1.09221815  ANG                             
 SETTING D1             =       119.50303567  DEGREE                          


 Using masses of most abundant isotopes

 **********************************************************************************************************************************
 SETTING BASIS          =    VTZ


 Recomputing integrals since basis changed


 Using spherical harmonics

 Library entry C      S cc-pVTZ              selected for orbital group  1
 Library entry C      P cc-pVTZ              selected for orbital group  1
 Library entry C      D cc-pVTZ              selected for orbital group  1
 Library entry C      F cc-pVTZ              selected for orbital group  1
 Library entry O      S cc-pVTZ              selected for orbital group  2
 Library entry O      P cc-pVTZ              selected for orbital group  2
 Library entry O      D cc-pVTZ              selected for orbital group  2
 Library entry O      F cc-pVTZ              selected for orbital group  2
 Library entry H      S cc-pVTZ              selected for orbital group  3
 Library entry H      P cc-pVTZ              selected for orbital group  3
 Library entry H      D cc-pVTZ              selected for orbital group  3


 PROGRAM * SEWARD (Integral evaluation for generally contracted gaussian basis sets)     Author: Roland Lindh, 1990

 Geometry written to block  1 of record 700

 Orientation using atomic masses  
 Molecule type: Asymmetric top
 Symmetry elements: X
 Rotational constants:      23.9416165     24.7712333    128.6989527 GHz

 Point group  Cs  



 ATOMIC COORDINATES

 NR  ATOM    CHARGE       X              Y              Z

   1  C       6.00    0.000000000    0.026286389   -1.378989302
   2  O       8.00    0.000000000   -0.127275571    1.301140284
   3  H1      1.00    0.000000000    1.536602707    2.014284051
   4  H2      1.00    0.000000000   -1.870800765   -2.192087169
   5  H3      1.00   -1.688867805    1.020582834   -2.026421100
   6  H4      1.00    1.688867805    1.020582834   -2.026421100

 Bond lengths in Bohr (Angstrom)

 1-2  2.684525261  1-4  2.063993172  1-5  2.063993172  1-6  2.063993172  2-3  1.810266543
     ( 1.420589590)     ( 1.092218150)     ( 1.092218150)     ( 1.092218150)     ( 0.957951800)

 Bond angles

  1-2-3  109.92087409   2-1-4  109.92087409   2-1-5  109.92087409   2-1-6  109.92087409

  4-1-5  108.61494787   4-1-6  108.61494787   5-1-6  109.82050830

 NUCLEAR CHARGE:                   18
 NUMBER OF PRIMITIVE AOS:         162
 NUMBER OF SYMMETRY AOS:          148
 NUMBER OF CONTRACTIONS:          116   (   74A'  +   42A"  )
 NUMBER OF INNER CORE ORBITALS:     0   (    0A'  +    0A"  )
 NUMBER OF OUTER CORE ORBITALS:     2   (    2A'  +    0A"  )
 NUMBER OF VALENCE ORBITALS:       12   (    9A'  +    3A"  )


 NUCLEAR REPULSION ENERGY   40.31403181

 Eigenvalues of metric

         1 0.133E-02 0.182E-02 0.233E-02 0.327E-02 0.463E-02 0.732E-02 0.100E-01 0.104E-01
         2 0.191E-02 0.106E-01 0.218E-01 0.309E-01 0.376E-01 0.473E-01 0.763E-01 0.963E-01


 Contracted 2-electron integrals neglected if value below      1.0D-11
 AO integral compression algorithm  1   Integral accuracy      1.0D-11

     61.080 MB (compressed) written to integral file ( 55.0%)

     Node minimum: 2.884 MB, node maximum: 6.029 MB


 NUMBER OF SORTED TWO-ELECTRON INTEGRALS:     980127.     BUFFER LENGTH:  32768
 NUMBER OF SEGMENTS:   1  SEGMENT LENGTH:     980127      RECORD LENGTH: 524288

 Memory used in sort:       1.54 MW

 SORT1 READ    14086316. AND WROTE      968406. INTEGRALS IN      3 RECORDS. CPU TIME:     0.28 SEC, REAL TIME:     0.30 SEC
 SORT2 READ    11633476. AND WROTE    11777331. INTEGRALS IN    144 RECORDS. CPU TIME:     0.03 SEC, REAL TIME:     0.03 SEC

 Node minimum:      977679.  Node maximum:      989376. integrals

 OPERATOR DM      FOR CENTER  0  COORDINATES:    0.000000    0.000000    0.000000


 **********************************************************************************************************************************
 DATASETS  * FILE   NREC   LENGTH (MB)   RECORD NAMES
              1      18       28.88       500      610      700      900      950      970     1000      129      960     1100   
                                          VAR    BASINP    GEOM    SYMINP    ZMAT    AOBASIS   BASIS     P2S    ABASIS      S 
                                         1400     1410     1200     1210     1080     1600     1650     1700   
                                           T        V       H0       H01     AOSYM     SMH    MOLCAS    OPER   

 PROGRAMS   *        TOTAL       INT
 CPU TIMES  *         0.92      0.69
 REAL TIME  *         1.29 SEC
 DISK USED  *        29.21 MB (local),      545.10 MB (total)
 GA USED    *         0.00 MB       (max)       0.00 MB       (current)
 **********************************************************************************************************************************


 Program * Restricted Hartree-Fock

 Orbital guess generated from atomic densities. Full valence occupancy:   11   3

 Initial occupancy:   7   2

 NELEC=   18   SYM=1   MS2= 0   THRE=1.0D-08   THRD=1.0D-06   THRG=1.0D-06  HFMA2=F  DIIS_START=2   DIIS_MAX=10   DIIS_INCORE=F

 Level shifts:    0.00 (CLOSED)    0.00 (OPEN)    0.30 (GAP_MIN)

 ITER           ETOT              DE          GRAD        DDIFF     DIIS  NEXP   TIME(IT)  TIME(TOT)  DIAG
   1     -115.05285691    -115.05285691     0.00D+00     0.96D-01     0     0       0.01      0.02    start
   2     -115.08117088      -0.02831397     0.84D-02     0.11D-01     1     0       0.01      0.03    diag
   3     -115.08825354      -0.00708266     0.45D-02     0.35D-02     2     0       0.01      0.04    diag
   4     -115.08875370      -0.00050016     0.87D-03     0.93D-03     3     0       0.00      0.04    diag
   5     -115.08878325      -0.00002954     0.17D-03     0.25D-03     4     0       0.01      0.05    diag
   6     -115.08878453      -0.00000128     0.32D-04     0.64D-04     5     0       0.02      0.07    diag
   7     -115.08878458      -0.00000005     0.68D-05     0.12D-04     6     0       0.01      0.08    diag
   8     -115.08878458      -0.00000000     0.21D-05     0.32D-05     7     0       0.01      0.09    fixocc
   9     -115.08878458      -0.00000000     0.57D-06     0.11D-05     8     0       0.01      0.10    diag
  10     -115.08878458      -0.00000000     0.11D-06     0.22D-06     9     0       0.01      0.11    diag/orth
  11     -115.08878458      -0.00000000     0.23D-07     0.29D-07     0     0       0.01      0.12    diag

 Final occupancy:   7   2

 !RHF STATE 1.1 Energy               -115.088784582045
  RHF One-electron energy            -236.931239363490
  RHF Two-electron energy              81.528422968958
  RHF Kinetic energy                  114.943479587120
  RHF Nuclear energy                   40.314031812486
  RHF Virial quotient                  -1.001264142998

 !RHF STATE 1.1 Dipole moment           0.00000000     0.58459632    -0.37071235
 Dipole moment /Debye                   0.00000000     1.48589562    -0.94225681

 Orbital energies:

           1.1          2.1          3.1          4.1          5.1          6.1          7.1          8.1          9.1
    -20.548974   -11.269959    -1.351676    -0.923482    -0.684912    -0.594492    -0.496942     0.138668     0.177903

           1.2          2.2          3.2          4.2
     -0.619639    -0.447121     0.219626     0.399965


 HOMO      2.2    -0.447121 =     -12.1668eV
 LUMO      8.1     0.138668 =       3.7734eV
 LUMO-HOMO         0.585790 =      15.9402eV

 Orbitals saved in record  2100.2


 **********************************************************************************************************************************
 DATASETS  * FILE   NREC   LENGTH (MB)   RECORD NAMES
              1      18       28.89       500      610      700      900      950      970     1000      129      960     1100   
                                          VAR    BASINP    GEOM    SYMINP    ZMAT    AOBASIS   BASIS     P2S    ABASIS      S 
                                         1400     1410     1200     1210     1080     1600     1650     1700   
                                           T        V       H0       H01     AOSYM     SMH    MOLCAS    OPER   

              2       4        0.52       700     1000      520     2100   
                                         GEOM     BASIS   MCVARS     RHF  

 PROGRAMS   *        TOTAL    HF-SCF       INT
 CPU TIMES  *         1.04      0.12      0.69
 REAL TIME  *         1.44 SEC
 DISK USED  *        29.97 MB (local),      554.13 MB (total)
 GA USED    *         0.00 MB       (max)       0.00 MB       (current)
 **********************************************************************************************************************************


 PROGRAM * CCSD (Closed-shell coupled cluster)     Authors: C. Hampel, H.-J. Werner, 1991, M. Deegan, P.J. Knowles, 1992


 Convergence thresholds:  THRVAR = 1.00D-12  THRDEN = 1.00D-08

 CCSD(T)     terms to be evaluated (factor= 1.000)


 Using ITF CCSD(T) gradient implementation

 Number of core orbitals:           2 (   2   0 )
 Number of closed-shell orbitals:   7 (   5   2 )
 Number of external orbitals:     107 (  67  40 )

 Molecular orbitals read from record     2100.2  Type=RHF/CANONICAL  

 Integral transformation finished. Total CPU:   0.15 sec, npass=  1  Memory used:   2.19 MW
 Time for re-packing tensors:             0.04 sec
  Reference energy                   -115.088784582045

  MP2 correlation energy               -0.427702100462
  MP2 total energy                   -115.516486682507

 ITER.      SQ.NORM     CORR.ENERGY   TOTAL ENERGY   ENERGY CHANGE        DEN1      VAR(S)    VAR(P)  DIIS     TIME
   1      1.11777459    -0.44515733  -115.53394191    -0.01745523    -0.00710608  1.27e-03  1.82e-03  1  1     0.10
   2      1.12520343    -0.44624204  -115.53502662    -0.00108471    -0.00896354  3.70e-05  2.43e-04  2  2     0.19
   3      1.12736895    -0.44639408  -115.53517866    -0.00015203    -0.00145099  4.19e-06  3.25e-05  3  3     0.30
   4      1.12849949    -0.44639045  -115.53517504     0.00000362    -0.00090603  1.31e-07  3.12e-06  4  4     0.40
   5      1.12878915    -0.44637305  -115.53515764     0.00001740    -0.00018887  1.61e-08  2.63e-07  5  5     0.52
   6      1.12886328    -0.44637009  -115.53515467     0.00000297    -0.00004561  3.35e-10  1.11e-08  6  0     0.63
   7      1.12887117    -0.44636895  -115.53515353     0.00000114    -0.00000524  7.38e-11  7.44e-10  6  1     0.74
   8      1.12887156    -0.44636882  -115.53515340     0.00000013    -0.00000030  3.26e-12  5.65e-11  6  2     0.86
   9      1.12887157    -0.44636880  -115.53515338     0.00000002    -0.00000002  1.85e-13  5.15e-12  6  3     0.96
  10      1.12887164    -0.44636880  -115.53515338    -0.00000000    -0.00000003  1.00e-14  2.45e-13           1.05

 Norm of t1 vector:      0.04421895     S-energy:     -0.00000000   T1 diagnostic:  0.00835660

 Time per iteration:                      0.11 sec

 RESULTS
 =======

  Reference energy                   -115.088784582045
  CCSD correlation energy              -0.446368796937
  CCSD total energy                  -115.535153378982

  Triples (T) contribution             -0.014707703202
  Total correlation energy             -0.461076500138
  CCSD[T] total energy               -115.550319785225
 !CCSD(T) total energy               -115.549861082183

 Starting CP-CCSD(T) iterations.   Author: W. Gyorffy (2015)

 ITER.      NRM1           NRM2      VAR(S)+VAR(P)   DIIS    TIME
   1     0.00085670     0.45344401     4.49e-03      1  1    0.11
   2     0.00103583     0.44964994     9.49e-05      2  2    0.24
   3     0.00102764     0.45093997     5.69e-06      3  3    0.34
   4     0.00104742     0.45102819     7.07e-07      4  4    0.46
   5     0.00105672     0.45109138     1.22e-07      5  5    0.59
   6     0.00106259     0.45110001     1.44e-08      6  0    0.72
   7     0.00106485     0.45110324     1.81e-09      6  1    0.86
   8     0.00106559     0.45110543     2.23e-10      6  2    1.00
   9     0.00106586     0.45110676     2.13e-11      6  3    1.14
  10     0.00106592     0.45110718     2.39e-12      6  4    1.25
  11     0.00106594     0.45110730     2.66e-13              1.36


 Time per iteration:                      0.12 sec

 CPHF start vector      0.2 not found

 Starting Coupled-perturbed Hartree-Fock, convergence threshold= 1.0D-06

 ITER   MIC  DIIS      VAR         VARC       CPU
   1     0     1    0.33D-02    0.14D-02     0.01
   2     3     2    0.20D-03    0.46D-04     0.02
   3     4     3    0.32D-05    0.81D-06     0.02
   4     1     4    0.62D-06    0.34D-07     0.03

 CPHF convergence reached in  4 macroiterations and    8 microiterations.   Accuracy: 6.2279D-07

 CPHF solution written to record  8500.2

 Dipole moments (unrelaxed):            0.00000000     0.54424371    -0.32349271
 Orbital relaxation contribution:      -0.00000000     0.00234367    -0.00270615
 !CCSD(T) STATE 1.1 Dipole moment       0.00000000     0.54658737    -0.32619886
 Dipole moment /Debye                   0.00000000     1.38928652    -0.82911479

 CPU-time for coupled-perturbed hartree-fock:          0.03 sec

 Number of N-1 electron functions:               7
 Number of N-2 electron functions:              28
 Number of singly external CSFs:               415
 Number of doubly external CSFs:            142265
 Total number of CSFs:                      142681

 CCSD(T) gradient info saved on record        55555.1




 **********************************************************************************************************************************
 DATASETS  * FILE   NREC   LENGTH (MB)   RECORD NAMES
              1      21       80.00       500      610      700      900      950      970     1000      129      960     1100   
                                          VAR    BASINP    GEOM    SYMINP    ZMAT    AOBASIS   BASIS     P2S    ABASIS      S 
                                         1400     1410     1200     1210     1080     1600     1650     1700     1380     3791   
                                           T        V       H0       H01     AOSYM     SMH    MOLCAS    OPER     JKOP   
                                        55555   
                                        CCSD(T)    

              2       5        0.76       700     1000      520     2100     8500   
                                         GEOM     BASIS   MCVARS     RHF     CPHF   

 PROGRAMS   *        TOTAL   CCSD(T)    HF-SCF       INT
 CPU TIMES  *         8.22      7.17      0.12      0.69
 REAL TIME  *         9.99 SEC
 DISK USED  *        80.84 MB (local),        1.14 GB (total)
 SF USED    *       380.08 MB
 GA USED    *         0.00 MB       (max)       0.00 MB       (current)
 **********************************************************************************************************************************


 PROGRAM * OPT (Geometry optimization)     Authors: F. Eckert and H.-J. Werner


 BFGS update of hessian

 *** Long output written to logfile /home/koe/bachelorthesis/calc/MAIN/CH3OH/opt_calc_ccsd/ch3oh_opt_calc_ccsd.log ***


 Geometry optimization using default procedure for command CCSD(T)

 Geometry written to block  1 of record 700

 Making model hessian for Z-matrix coordinates

 Entering Rational Function Geometry Optimization

 ITER.   ENERGY(OLD)    ENERGY(NEW)      DE          GRADMAX     GRADNORM    GRADRMS     STEPMAX     STEPLEN     STEPRMS   CPU-time
   1  -115.54986108  -115.54986108     0.00000000  0.00000016  0.00000019  0.00000009  0.00000014  0.00000019  0.00000004     10.15
   2  -115.54986108  -115.54986108     0.00000000  0.00000003  0.00000004  0.00000002  0.00000007  0.00000009  0.00000002     20.37
   3  -115.54986108  -115.54986108    -0.00000000  0.00000007  0.00000009  0.00000004  0.00000003  0.00000004  0.00000001     31.34
   4  -115.54986108  -115.54986108     0.00000000  0.00000006  0.00000008  0.00000003  0.00000024  0.00000039  0.00000008     42.32
   5  -115.54986108  -115.54986108    -0.00000000  0.00000013  0.00000014  0.00000006  0.00000015  0.00000023  0.00000005     53.32
   6  -115.54986108  -115.54986108     0.00000000  0.00000003  0.00000004  0.00000002  0.00000008  0.00000012  0.00000002     64.25
   7  -115.54986108  -115.54986108    -0.00000000  0.00000006  0.00000007  0.00000003  0.00000004  0.00000006  0.00000001     74.59
   8  -115.54986108  -115.54986108     0.00000000  0.00000004  0.00000005  0.00000002  0.00000011  0.00000016  0.00000003     85.36
   9  -115.54986108  -115.54986108    -0.00000000  0.00000006  0.00000006  0.00000003  0.00000006  0.00000008  0.00000002     95.76
  10  -115.54986108  -115.54986108     0.00000000  0.00000002  0.00000003  0.00000001  0.00000006  0.00000009  0.00000002    106.91

 END OF GEOMETRY OPTIMIZATION.

 Optimized variables
 B1=                  1.42058954 ANG
 B2=                  0.95795178 ANG
 A1=                109.92087898 DEGREE
 B3=                  1.09221816 ANG
 D1=                119.50303563 DEGREE

 **********************************************************************************************************************************

 Geometry written to block  1 of record 700

 Recomputing wavefunction for reoriented structure

 Current geometry (xyz format, in Angstrom)

    6
 CCSD(T)/VTZ  ENERGY=-115.54986108
 C          0.0000000000        0.0139101588       -0.7297296799
 O          0.0000000000       -0.0673513301        0.6885337699
 H          0.0000000000        0.8131350859        1.0659132681
 H          0.0000000000       -0.9899851067       -1.1600026342
 H         -0.8937103392        0.5400691742       -1.0723359254
 H          0.8937103392        0.5400691742       -1.0723359254

 **********************************************************************************************************************************


 **********************************************************************************************************************************
 DATASETS  * FILE   NREC   LENGTH (MB)   RECORD NAMES
              1      21       80.00       500      610      700      900      950      970     1000      129      960     1100   
                                          VAR    BASINP    GEOM    SYMINP    ZMAT    AOBASIS   BASIS     P2S    ABASIS      S 
                                         1400     1410     1200     1210     1080     1600     1650     1700     1380     3791   
                                           T        V       H0       H01     AOSYM     SMH    MOLCAS    OPER     JKOP   
                                        55555   
                                        CCSD(T)    

              2       6        0.84       700     1000      520     2100     8500     9001   
                                         GEOM     BASIS   MCVARS     RHF     CPHF    DEN_MP2    

 PROGRAMS   *        TOTAL      OPTG   CCSD(T)    HF-SCF       INT
 CPU TIMES  *       121.95    113.72      7.17      0.12      0.69
 REAL TIME  *       157.08 SEC
 DISK USED  *       119.65 MB (local),        1.62 GB (total)
 SF USED    *       694.71 MB
 GA USED    *         0.00 MB       (max)       0.00 MB       (current)
 **********************************************************************************************************************************


 PROGRAM * HESSIAN

 Computing numerical hessian using default procedure for command CCSD(T)

 Symmetry elements for unique displacements: X  

 Using AUTO symmetry option

 Running default procedure: HF-SCF000  CCSD(T)


 Numerically approximating hessian using central gradient differences

 Task list generated. Total number of displacements:     26

 All  26 tasks completed.  CPU=    817.00 sec, Elapsed=    817.05 sec.

 CCSD(T) hessian saved to record  5300.2

 PROGRAM * FREQUENCIES (Calculation of harmonic vibrational spectra for CCSD(T))


 Permanent Dipole Moment [debye]
   1-  3    0.000000    1.389287   -0.829115

 Dipole Moment Norm    1.6178844 [debye]

 Dipole Moment Derivatives [debye/ang]
              1             2             3             4             5             6             7             8
    1     1.8046681     0.0000000     0.0000000    -2.5933759     0.0000000     0.0000000     1.6456170     0.0000000
    2     0.0000000     1.3388089    -0.0421153     0.0000000    -1.3238811     0.0728295     0.0000000     0.5944623
    3     0.0000000    -0.0365379     3.7541342     0.0000000    -0.1998979    -4.4122862     0.0000000     0.0187665
              9            10            11            12            13            14            15            16
    1     0.0000000     0.3015603     0.0000000     0.0000000    -0.5573869     0.4278782    -0.1847844    -0.5573869
    2     0.0096879     0.0000000    -0.4974219    -0.1785216     0.4364601    -0.0513837     0.0836009    -0.4364601
    3     1.2656514     0.0000000    -0.3706522    -0.0254888    -0.4261477     0.2925412    -0.2925672     0.4261477
             17            18
    1    -0.4278782     0.1847844
    2    -0.0513837     0.0836009
    3     0.2925412    -0.2925672

 Projecting out rotations and translations

 Force Constants (Second Derivatives of the Energy) in [a.u.]
                             CX1         CY1         CZ1         OX2         OY2     
           CX1           0.5796047
           CY1          -0.0000000   0.6141499
           CZ1           0.0000000   0.0261891   0.4772308
           OX2          -0.0601688   0.0000000  -0.0000000   0.0432616
           OY2           0.0000000  -0.0965741  -0.0143743   0.0000000   0.5492753
           OZ2           0.0000000   0.0366085  -0.2466654  -0.0000000   0.1537793
           H1X3         -0.0008720   0.0000000   0.0000000  -0.0008480  -0.0000000
           H1Y3          0.0000000   0.0035267   0.0117723   0.0000000  -0.4685840
           H1Z3         -0.0000000  -0.0424946  -0.0209717   0.0000000  -0.1410034
           H2X4         -0.0533178  -0.0000000   0.0000000   0.0032783  -0.0000000
           H2Y4         -0.0000000  -0.2921412  -0.0917687   0.0000000   0.0108331
           H2Z4          0.0000000  -0.0791668  -0.0809610   0.0000000  -0.0363158
           H3X5         -0.2326231   0.1053505  -0.0579031   0.0072384  -0.0026450
           H3Y5          0.1046623  -0.1144807   0.0340909  -0.0000743   0.0025248
           H3Z5         -0.0533934   0.0294319  -0.0643164  -0.0299109   0.0189571
           H4X6         -0.2326231  -0.1053505   0.0579031   0.0072384   0.0026450
           H4Y6         -0.1046623  -0.1144807   0.0340909   0.0000743   0.0025248
           H4Z6          0.0533934   0.0294319  -0.0643164   0.0299109   0.0189571
                             OZ2         H1X3        H1Y3        H1Z3        H2X4    
           OZ2           0.4457429
           H1X3         -0.0000000   0.0013871
           H1Y3         -0.1973611  -0.0000000   0.4613850
           H1Z3         -0.1102015  -0.0000000   0.1817272   0.1348215
           H2X4         -0.0000000   0.0000194   0.0000000  -0.0000000   0.0476465
           H2Y4          0.0004352  -0.0000000   0.0026033   0.0019970   0.0000000
           H2Z4         -0.0211382  -0.0000000   0.0005816  -0.0070371  -0.0000000
           H3X5         -0.0042639   0.0001568  -0.0001227  -0.0007557   0.0011868
           H3Y5          0.0032691  -0.0007401   0.0005345  -0.0001131   0.0262020
           H3Z5         -0.0338689  -0.0006558   0.0016400   0.0016944   0.0093039
           H4X6          0.0042639   0.0001568   0.0001227   0.0007557   0.0011868
           H4Y6          0.0032691   0.0007401   0.0005345  -0.0001131  -0.0262020
           H4Z6         -0.0338689   0.0006558   0.0016400   0.0016944  -0.0093039
                             H2Y4        H2Z4        H3X5        H3Y5        H3Z5    
           H2Y4          0.3055112
           H2Z4          0.0985562   0.0993320
           H3X5         -0.0013744   0.0010166   0.2447468
           H3Y5         -0.0134032   0.0081724  -0.1156292   0.1157386
           H3Z5         -0.0046098   0.0049021   0.0682811  -0.0405271   0.0867361
           H4X6          0.0013744  -0.0010166  -0.0207057  -0.0144207   0.0063751
           H4Y6         -0.0134032   0.0081724   0.0144207   0.0090860  -0.0048921
           H4Z6         -0.0046098   0.0049021  -0.0063751  -0.0048921   0.0048527
                             H4X6        H4Y6        H4Z6    
           H4X6          0.2447468
           H4Y6          0.1156292   0.1157386
           H4Z6         -0.0682811  -0.0405271   0.0867361


 Atomic Masses
   1-  6   12.000000   15.994910    1.007825    1.007825    1.007825    1.007825

 Mass weighted Second Derivative Matrix
                             CX1         CY1         CZ1         OX2         OY2     
           CX1           0.0483004
           CY1          -0.0000000   0.0511792
           CZ1           0.0000000   0.0021824   0.0397692
           OX2          -0.0043430   0.0000000  -0.0000000   0.0027047
           OY2           0.0000000  -0.0069707  -0.0010375   0.0000000   0.0343406
           OZ2           0.0000000   0.0026424  -0.0178044  -0.0000000   0.0096143
           H1X3         -0.0002507   0.0000000   0.0000000  -0.0002112  -0.0000000
           H1Y3          0.0000000   0.0010141   0.0033851   0.0000000  -0.1167089
           H1Z3         -0.0000000  -0.0122194  -0.0060304   0.0000000  -0.0351193
           H2X4         -0.0153316  -0.0000000   0.0000000   0.0008165  -0.0000000
           H2Y4         -0.0000000  -0.0840059  -0.0263883   0.0000000   0.0026982
           H2Z4          0.0000000  -0.0227646  -0.0232805   0.0000000  -0.0090451
           H3X5         -0.0668913   0.0302938  -0.0166502   0.0018029  -0.0006588
           H3Y5          0.0300959  -0.0329192   0.0098029  -0.0000185   0.0006288
           H3Z5         -0.0153534   0.0084632  -0.0184943  -0.0074498   0.0047216
           H4X6         -0.0668913  -0.0302938   0.0166502   0.0018029   0.0006588
           H4Y6         -0.0300959  -0.0329192   0.0098029   0.0000185   0.0006288
           H4Z6          0.0153534   0.0084632  -0.0184943   0.0074498   0.0047216
                             OZ2         H1X3        H1Y3        H1Z3        H2X4    
           OZ2           0.0278678
           H1X3         -0.0000000   0.0013763
           H1Y3         -0.0491562  -0.0000000   0.4578026
           H1Z3         -0.0274476  -0.0000000   0.1803162   0.1337747
           H2X4         -0.0000000   0.0000193   0.0000000  -0.0000000   0.0472766
           H2Y4          0.0001084  -0.0000000   0.0025830   0.0019815   0.0000000
           H2Z4         -0.0052648  -0.0000000   0.0005771  -0.0069825  -0.0000000
           H3X5         -0.0010620   0.0001555  -0.0001217  -0.0007498   0.0011776
           H3Y5          0.0008142  -0.0007344   0.0005304  -0.0001122   0.0259986
           H3Z5         -0.0084356  -0.0006507   0.0016273   0.0016812   0.0092316
           H4X6          0.0010620   0.0001555   0.0001217   0.0007498   0.0011776
           H4Y6          0.0008142   0.0007344   0.0005304  -0.0001122  -0.0259986
           H4Z6         -0.0084356   0.0006507   0.0016273   0.0016812  -0.0092316
                             H2Y4        H2Z4        H3X5        H3Y5        H3Z5    
           H2Y4          0.3031391
           H2Z4          0.0977910   0.0985608
           H3X5         -0.0013637   0.0010087   0.2428465
           H3Y5         -0.0132991   0.0081089  -0.1147314   0.1148399
           H3Z5         -0.0045740   0.0048640   0.0677510  -0.0402125   0.0860626
           H4X6          0.0013637  -0.0010087  -0.0205449  -0.0143087   0.0063256
           H4Y6         -0.0132991   0.0081089   0.0143087   0.0090154  -0.0048541
           H4Z6         -0.0045740   0.0048640  -0.0063256  -0.0048541   0.0048150
                             H4X6        H4Y6        H4Z6    
           H4X6          0.2428465
           H4Y6          0.1147314   0.1148399
           H4Z6         -0.0677510  -0.0402125   0.0860626


 Mass Weighted 2nd Derivative Matrix Eigenvalues
   1- 10    0.000000    0.000000    0.000000    0.000000    0.000000    0.000000    0.001829    0.041413    0.046435    0.054076
  11- 18    0.071048    0.083887    0.086483    0.086681    0.350161    0.366645    0.373204    0.571730

 Mass Weighted 2nd Derivative Matrix Eigenvectors
              1             2             3             4             5             6             7             8
    1     0.1547378     0.0725152     0.8099275     0.0389921    -0.0154104     0.0393936     0.0209048     0.0000000
    2     0.6063750     0.1027162    -0.1370300     0.4702587    -0.0493425    -0.2383632     0.0000000    -0.1567167
    3    -0.0359324    -0.1505646     0.0337889     0.0886863     0.5670742    -0.1423453     0.0000000    -0.4289458
    4     0.1865874     0.8032401     0.0150629    -0.3082048     0.3076404     0.1404072    -0.2518393     0.0000000
    5     0.5650716    -0.3363679    -0.0989862    -0.1392327     0.1184309     0.6188695     0.0000000    -0.0192917
    6    -0.0492195    -0.1998967     0.0424028     0.0633049     0.6647464    -0.1131133     0.0000000     0.5273777
    7    -0.1197883     0.2928929    -0.0442904     0.2381448     0.1094016     0.2941260     0.8616468     0.0000000
    8     0.1328253    -0.1148211    -0.0208919    -0.0805119     0.0414432     0.2150624     0.0000000     0.2225719
    9     0.0086827     0.0207211     0.0014156     0.1221946     0.1395288    -0.1677205     0.0000000    -0.3767499
   10     0.2348222    -0.0830435     0.2895280    -0.3484309    -0.0411550    -0.2837500     0.2780178     0.0000000
   11     0.1860095     0.0644138    -0.0442212     0.1882304    -0.0276567    -0.1371642     0.0000000     0.1083589
   12    -0.0343996    -0.1244695     0.0203137    -0.0955021     0.1955037     0.1176033     0.0000000    -0.4876157
   13    -0.0494947     0.0016467     0.2980175     0.2231219    -0.0183358     0.1474607    -0.1042600     0.0245658
   14     0.0183160     0.1001611    -0.0300491     0.5135906    -0.0145898     0.1268982    -0.2133589     0.1433473
   15    -0.0060740     0.1149970    -0.1404872     0.0526036     0.2000741    -0.0951607    -0.0425823     0.1217633
   16    -0.0494947     0.0016467     0.2980175     0.2231219    -0.0183358     0.1474607    -0.1042600    -0.0245658
   17     0.3495137     0.0145484    -0.0565557    -0.1582984    -0.0352807    -0.3734820     0.2133589     0.1433473
   18     0.0103906    -0.1175304     0.1490423     0.1258494     0.0959373    -0.1538610     0.0425823     0.1217633
              9            10            11            12            13            14            15            16
    1     0.0000000     0.4211215     0.0000000     0.0000000    -0.1919266     0.0000000     0.0000000    -0.3112706
    2    -0.1832895     0.0000000    -0.3727277    -0.0220103     0.0000000    -0.1659864     0.0601511     0.0000000
    3     0.5378121     0.0000000    -0.0321800    -0.3586867     0.0000000     0.0030949    -0.1411702     0.0000000
    4     0.0000000    -0.2133879     0.0000000     0.0000000    -0.0381879     0.0000000     0.0000000     0.0009453
    5     0.0351681     0.0000000     0.2932202     0.0270767     0.0000000    -0.0674002     0.0017440     0.0000000
    6    -0.4386400     0.0000000    -0.0993318    -0.0735928     0.0000000     0.0199761    -0.0078128     0.0000000
    7     0.0000000    -0.0131709     0.0000000     0.0000000    -0.0100351     0.0000000     0.0000000     0.0013171
    8     0.1450769     0.0000000    -0.2326957    -0.0207684     0.0000000     0.0220588    -0.0035879     0.0000000
    9    -0.4435114     0.0000000     0.6619901     0.0389663     0.0000000    -0.0806611    -0.0035100     0.0000000
   10     0.0000000    -0.2834035     0.0000000     0.0000000     0.7016613     0.0000000     0.0000000    -0.0241654
   11     0.1112331     0.0000000     0.0530574    -0.2237229     0.0000000    -0.1623447     0.3925471     0.0000000
   12    -0.2395882     0.0000000    -0.4147013     0.4580368     0.0000000     0.3474761     0.1522776     0.0000000
   13     0.0384535    -0.1532314     0.0976288    -0.1514480     0.0613870     0.3660156     0.5238021     0.5465807
   14     0.1180253    -0.1017180     0.1488250     0.1062861     0.3555142     0.4907763    -0.3017331    -0.3357816
   15     0.2873839     0.5607934     0.1297357     0.5169355     0.3232330    -0.1785376     0.1847415     0.1994048
   16    -0.0384535    -0.1532314    -0.0976288     0.1514480     0.0613870    -0.3660156    -0.5238021     0.5465807
   17     0.1180253     0.1017180     0.1488250     0.1062861    -0.3555142     0.4907763    -0.3017331     0.3357816
   18     0.2873839    -0.5607934     0.1297357     0.5169355    -0.3232330    -0.1785376     0.1847415    -0.1994048
             17            18
    1     0.0000000     0.0000000
    2    -0.3062680    -0.0071629
    3    -0.0480888     0.0042088
    4     0.0000000     0.0000000
    5     0.0077800    -0.2200339
    6     0.0035777    -0.1041297
    7     0.0000000     0.0000000
    8    -0.0133172     0.8879440
    9     0.0028569     0.3899288
   10     0.0000000     0.0000000
   11     0.8041830     0.0120605
   12     0.3175724     0.0034132
   13    -0.2389833    -0.0009584
   14     0.1174786     0.0006422
   15    -0.0843728     0.0034837
   16     0.2389833     0.0009584
   17     0.1174786     0.0006422
   18    -0.0843728     0.0034837

   Low Vibration      Wavenumber
        Nr             [1/cm] 
        1                0.00
        2                0.00
        3                0.00
        4                0.00
        5                0.00
        6                0.00

     Vibration        Wavenumber
        Nr             [1/cm] 
        1              219.81
        2             1046.10
        3             1107.71
        4             1195.38
        5             1370.19
        6             1488.85
        7             1511.71
        8             1513.44
        9             3041.85
       10             3112.63
       11             3140.34
       12             3886.87

 FREQUENCIES * CALCULATION OF NORMAL MODES FOR CCSD(T)


 Atomic Coordinates

  Nr  Atom  Charge       X              Y              Z

   1   C     6.00    0.000000000    0.026286390   -1.378989240
   2   O     8.00    0.000000000   -0.127275568    1.301140253
   3   H1    1.00    0.000000000    1.536602615    2.014284149
   4   H2    1.00    0.000000000   -1.870800719   -2.192087283
   5   H3    1.00   -1.688867776    1.020582828   -2.026421213
   6   H4    1.00    1.688867776    1.020582828   -2.026421213

 Gradient norm at reference geometry: 0.21706D-07

 Normal Modes

                              1 A``       2 A`        3 A`        4 A``       5 A` 
 Wavenumbers [cm-1]          219.81     1046.10     1107.71     1195.38     1370.19
 Intensities [km/mol]        110.86      102.56        5.08        0.69       30.30
 Intensities [relative]      100.00       92.52        4.58        0.62       27.33
           CX1              0.00603     0.00000    -0.00000     0.12157     0.00000
           CY1             -0.00000    -0.04524    -0.05291    -0.00000    -0.10760
           CZ1              0.00000    -0.12383     0.15525     0.00000    -0.00929
           OX2             -0.06297     0.00000    -0.00000    -0.05336    -0.00000
           OY2              0.00000    -0.00482     0.00879     0.00000     0.07332
           OZ2              0.00000     0.13187    -0.10968    -0.00000    -0.02484
           H1X3             0.85830     0.00000     0.00000    -0.01312     0.00000
           H1Y3             0.00000     0.22171     0.14451    -0.00000    -0.23179
           H1Z3            -0.00000    -0.37528    -0.44179     0.00000     0.65942
           H2X4             0.27694    -0.00000     0.00000    -0.28230     0.00000
           H2Y4            -0.00000     0.10794     0.11080    -0.00000     0.05285
           H2Z4             0.00000    -0.48572    -0.23866     0.00000    -0.41309
           H3X5            -0.10385     0.02447     0.03830    -0.15264     0.09725
           H3Y5            -0.21253     0.14279     0.11757    -0.10132     0.14825
           H3Z5            -0.04242     0.12129     0.28627     0.55861     0.12923
           H4X6            -0.10385    -0.02447    -0.03830    -0.15264    -0.09725
           H4Y6             0.21253     0.14279     0.11757     0.10132     0.14825
           H4Z6             0.04242     0.12129     0.28627    -0.55861     0.12923

                              6 A`        7 A``       8 A`        9 A`       10 A``
 Wavenumbers [cm-1]         1488.85     1511.71     1513.44     3041.85     3112.63
 Intensities [km/mol]          3.92        2.33        2.20       48.80       54.38
 Intensities [relative]        3.53        2.10        1.99       44.02       49.06
           CX1             -0.00000    -0.05540    -0.00000     0.00000    -0.08986
           CY1             -0.00635     0.00000    -0.04792     0.01736     0.00000
           CZ1             -0.10354     0.00000     0.00089    -0.04075    -0.00000
           OX2              0.00000    -0.00955    -0.00000     0.00000     0.00024
           OY2              0.00677     0.00000    -0.01685     0.00044    -0.00000
           OZ2             -0.01840     0.00000     0.00499    -0.00195    -0.00000
           H1X3            -0.00000    -0.01000    -0.00000    -0.00000     0.00131
           H1Y3            -0.02069     0.00000     0.02197    -0.00357     0.00000
           H1Z3             0.03881     0.00000    -0.08035    -0.00350    -0.00000
           H2X4             0.00000     0.69893     0.00000     0.00000    -0.02407
           H2Y4            -0.22285     0.00000    -0.16171     0.39102    -0.00000
           H2Z4             0.45626    -0.00000     0.34612     0.15169    -0.00000
           H3X5            -0.15086     0.06115     0.36459     0.52176     0.54445
           H3Y5             0.10587     0.35413     0.48887    -0.30056    -0.33448
           H3Z5             0.51492     0.32198    -0.17784     0.18402     0.19863
           H4X6             0.15086     0.06115    -0.36459    -0.52176     0.54445
           H4Y6             0.10587    -0.35413     0.48887    -0.30056     0.33448
           H4Z6             0.51492    -0.32198    -0.17784     0.18402    -0.19863

                             11 A`       12 A` 
 Wavenumbers [cm-1]         3140.34     3886.87
 Intensities [km/mol]         28.25       31.70
 Intensities [relative]       25.49       28.59
           CX1             -0.00000     0.00000
           CY1             -0.08841    -0.00207
           CZ1             -0.01388     0.00121
           OX2              0.00000     0.00000
           OY2              0.00195    -0.05502
           OZ2              0.00089    -0.02604
           H1X3             0.00000    -0.00000
           H1Y3            -0.01327     0.88449
           H1Z3             0.00285     0.38841
           H2X4            -0.00000    -0.00000
           H2Y4             0.80105     0.01201
           H2Z4             0.31634     0.00340
           H3X5            -0.23805    -0.00095
           H3Y5             0.11702     0.00064
           H3Z5            -0.08404     0.00347
           H4X6             0.23805     0.00095
           H4Y6             0.11702     0.00064
           H4Z6            -0.08404     0.00347


 Normal Modes of low/zero frequencies

                                  1           2           3           4           5
 Wavenumbers [cm-1]            0.00        0.00        0.00        0.00        0.00
 Intensities [km/mol]          0.00        0.00        0.00        0.00        0.00
 Intensities [relative]        0.00        0.00        0.00        0.00        0.00
           CX1              0.04467     0.02093     0.23381     0.01126    -0.00445
           CY1              0.17505     0.02965    -0.03956     0.13575    -0.01424
           CZ1             -0.01037    -0.04346     0.00975     0.02560     0.16370
           OX2              0.04665     0.20084     0.00377    -0.07706     0.07692
           OY2              0.14129    -0.08411    -0.02475    -0.03481     0.02961
           OZ2             -0.01231    -0.04998     0.01060     0.01583     0.16621
           H1X3            -0.11932     0.29175    -0.04412     0.23722     0.10898
           H1Y3             0.13231    -0.11437    -0.02081    -0.08020     0.04128
           H1Z3             0.00865     0.02064     0.00141     0.12172     0.13899
           H2X4             0.23391    -0.08272     0.28840    -0.34708    -0.04099
           H2Y4             0.18529     0.06416    -0.04405     0.18750    -0.02755
           H2Z4            -0.03427    -0.12399     0.02023    -0.09513     0.19474
           H3X5            -0.04930     0.00164     0.29686     0.22225    -0.01826
           H3Y5             0.01824     0.09977    -0.02993     0.51159    -0.01453
           H3Z5            -0.00605     0.11455    -0.13994     0.05240     0.19930
           H4X6            -0.04930     0.00164     0.29686     0.22225    -0.01826
           H4Y6             0.34815     0.01449    -0.05634    -0.15768    -0.03514
           H4Z6             0.01035    -0.11707     0.14846     0.12536     0.09556

                                  6
 Wavenumbers [cm-1]            0.00
 Intensities [km/mol]          0.00
 Intensities [relative]        0.00
           CX1              0.01137
           CY1             -0.06881
           CZ1             -0.04109
           OX2              0.03511
           OY2              0.15474
           OZ2             -0.02828
           H1X3             0.29298
           H1Y3             0.21423
           H1Z3            -0.16707
           H2X4            -0.28265
           H2Y4            -0.13663
           H2Z4             0.11715
           H3X5             0.14689
           H3Y5             0.12640
           H3Z5            -0.09479
           H4X6             0.14689
           H4Y6            -0.37203
           H4Z6            -0.15326


 Frequencies dumped to record   5400.2

 Zero point energy:  0.05156607 [H]    11317.44 [1/CM]      135.39 [KJ/MOL]
 Frequency information read from record  5400.2

 Recomputing wavefunction at initial geometry


 **********************************************************************************************************************************
 DATASETS  * FILE   NREC   LENGTH (MB)   RECORD NAMES
              1      21       80.00       500      610      700      900      950      970     1000      129      960     1100   
                                          VAR    BASINP    GEOM    SYMINP    ZMAT    AOBASIS   BASIS     P2S    ABASIS      S 
                                         1400     1410     1200     1210     1080     1600     1650     1700     1380     3791   
                                           T        V       H0       H01     AOSYM     SMH    MOLCAS    OPER     JKOP   
                                        55555   
                                        CCSD(T)    

              2       9        0.88       700     1000      520     2100     8500     9001     5300     5450     5400   
                                         GEOM     BASIS   MCVARS     RHF     CPHF    DEN_MP2   HESS     NMOD     FREQ   

 PROGRAMS   *        TOTAL      FREQ      OPTG   CCSD(T)    HF-SCF       INT
 CPU TIMES  *       553.74    431.79    113.72      7.17      0.12      0.69
 REAL TIME  *       982.55 SEC
 DISK USED  *         1.69 GB (local),       17.46 GB (total)
 SF USED    *       694.72 MB
 GA USED    *         0.00 MB       (max)       0.00 MB       (current)
 **********************************************************************************************************************************

 Dump information in style MOLDEN to ch3oh.molden                                                                    

 Molecular orbitals read from record     2100.2  Type=RHF/CANONICAL (state 1.1)
 Occupation numbers read from record     2100.2  Type=RHF/RHF (state 1.1)
 Orbital energies read from record       2100.2  Type=RHF/CANONICAL (state 1.1)
 Redundancy group numbers read from rec  2100.2  Type=RHF/RHF (state 1.1)

 DUMP ORBITAL  1.1 AS ORBITAL    1  occ=    2.0000  eig=  -20.5490  GROUP=   2
 DUMP ORBITAL  2.1 AS ORBITAL    2  occ=    2.0000  eig=  -11.2700  GROUP=   2
 DUMP ORBITAL  3.1 AS ORBITAL    3  occ=    2.0000  eig=   -1.3517  GROUP=   2
 DUMP ORBITAL  4.1 AS ORBITAL    4  occ=    2.0000  eig=   -0.9235  GROUP=   2
 DUMP ORBITAL  5.1 AS ORBITAL    5  occ=    2.0000  eig=   -0.6849  GROUP=   2
 DUMP ORBITAL  1.2 AS ORBITAL    6  occ=    2.0000  eig=   -0.6196  GROUP=   2
 DUMP ORBITAL  6.1 AS ORBITAL    7  occ=    2.0000  eig=   -0.5945  GROUP=   2
 DUMP ORBITAL  7.1 AS ORBITAL    8  occ=    2.0000  eig=   -0.4969  GROUP=   2
 DUMP ORBITAL  2.2 AS ORBITAL    9  occ=    2.0000  eig=   -0.4471  GROUP=   2

 Total charge:      18.000000
 Frequency information read from record  5400.2

 **********************************************************************************************************************************

 CCSD(T)/cc-pVTZ energy=   -115.549861082463

   OPTG(CCSD(T))         CCSD(T)          HF-SCF
   -115.54986108   -115.54986108   -115.08878458
 **********************************************************************************************************************************
 Molpro calculation terminated
