
 Working directory              : /tmp/koe/molpro.yZuLJKDSEu/
 Global scratch directory       : /tmp/koe/molpro.yZuLJKDSEu/
 Wavefunction directory         : /home/koe/wfu/
 Main file repository           : /tmp/koe/molpro.yZuLJKDSEu/

 id        : liedlgroup

 Nodes     nprocs
 zh2-c724    11
 Distribution of processes:   nprocs(total)=   12   nprocs(compute)=   11   nprocs(helper)=    1
 GA implementation: MPI file
 GA implementation (serial work in mppx): MPI file

 Using customized tuning parameters: mindgm=1; mindgv=20; mindgc=4; mindgr=1; noblas=0; minvec=7
 default implementation of scratch files=sf  


 Variables initialized (1015), CPU time= 0.12 sec
 ***,ch4 (methane) vibrational spectrum
 memory,256,m
 
 orient,mass
 geometry={
 C
 H1,C,B1
 H2,C,B1,H1,A1
 H3,C,B1,H2,A1,H1,120.0
 H4,C,B1,H2,A1,H1,-120.0
 }
  B1=                  1.08617963 ANG
  A1=                109.47122029 DEGREE
 
 mass,iso
 basis=vtz
 {hf
 start,atden}
 ccsd(t)
 {optg, GRADIENT=3.0D-8, ENERGY=1.0D-10, STEP=3.0D-8}
 {frequencies, symm=auto, print=0, step=0.001}
 put,molden,ch4_opt.dat
 
 Commands initialized (818), CPU time= 0.04 sec, 672 directives.
 Default parameters read. Elapsed time= 0.89 sec

 Checking input...
 Passed
1


                                         ***  PROGRAM SYSTEM MOLPRO  ***
                                       Copyright, TTI GmbH Stuttgart, 2015
                                    Version 2022.1 linked Mar  4 2022 00:40:14


 **********************************************************************************************************************************
 LABEL *   ch4 (methane) vibrational spectrum                                            
  (6 PROC) 64 bit mpp version                                                            DATE: 25-Apr-22          TIME: 14:31:43  
 **********************************************************************************************************************************

 SHA1:             31073afc4d8441e10870424e0d77336a33bc4286
 **********************************************************************************************************************************

 Memory per process:       256 MW
 Total memory per node:   2816 MW

 GA preallocation disabled
 GA check disabled

 Variable memory set to 256.0 MW

 ZCENTRE=MASS

 SETTING B1             =         1.08617963  ANG                             
 SETTING A1             =       109.47122029  DEGREE                          


 Using masses of most abundant isotopes

 **********************************************************************************************************************************
 SETTING BASIS          =    VTZ


 Recomputing integrals since basis changed


 Using spherical harmonics

 Library entry C      S cc-pVTZ              selected for orbital group  1
 Library entry C      P cc-pVTZ              selected for orbital group  1
 Library entry C      D cc-pVTZ              selected for orbital group  1
 Library entry C      F cc-pVTZ              selected for orbital group  1
 Library entry H      S cc-pVTZ              selected for orbital group  2
 Library entry H      P cc-pVTZ              selected for orbital group  2
 Library entry H      D cc-pVTZ              selected for orbital group  2


 PROGRAM * SEWARD (Integral evaluation for generally contracted gaussian basis sets)     Author: Roland Lindh, 1990

 Geometry written to block  1 of record 700

 Orientation using atomic masses  
 Molecule type: Spherical top,     Neighbour degeneracy = 4
 Symmetry elements: X,Y
 Rotational constants:     159.3896155    159.3896155    159.3896144 GHz

 Point group  C2v 



 ATOMIC COORDINATES

 NR  ATOM    CHARGE       X              Y              Z

   1  C       6.00    0.000000000    0.000000000   -0.000000001
   2  H1      1.00    1.675926200    0.000000000    1.185058787
   3  H2      1.00   -1.675926200    0.000000000    1.185058787
   4  H3      1.00    0.000000000   -1.675926207   -1.185058780
   5  H4      1.00    0.000000000    1.675926207   -1.185058780

 Bond lengths in Bohr (Angstrom)

 1-2  2.052582023  1-3  2.052582023  1-4  2.052582023  1-5  2.052582023
     ( 1.086179630)     ( 1.086179630)     ( 1.086179630)     ( 1.086179630)

 Bond angles

  2-1-3  109.47122029   2-1-4  109.47122063   2-1-5  109.47122063   3-1-4  109.47122063

  3-1-5  109.47122063   4-1-5  109.47122098

 NUCLEAR CHARGE:                   10
 NUMBER OF PRIMITIVE AOS:         115
 NUMBER OF SYMMETRY AOS:          106
 NUMBER OF CONTRACTIONS:           86   (   33A1  +   21B1  +   21B2  +   11A2  )
 NUMBER OF INNER CORE ORBITALS:     0   (    0A1  +    0B1  +    0B2  +    0A2  )
 NUMBER OF OUTER CORE ORBITALS:     1   (    1A1  +    0B1  +    0B2  +    0A2  )
 NUMBER OF VALENCE ORBITALS:        8   (    4A1  +    2B1  +    2B2  +    0A2  )


 NUCLEAR REPULSION ENERGY   13.48264494


 Eigenvalues of metric

         1 0.126E-02 0.195E-02 0.391E-02 0.107E-01 0.125E-01 0.254E-01 0.287E-01 0.368E-01
         2 0.195E-02 0.107E-01 0.254E-01 0.368E-01 0.727E-01 0.114E+00 0.127E+00 0.240E+00
         3 0.195E-02 0.107E-01 0.254E-01 0.368E-01 0.727E-01 0.114E+00 0.127E+00 0.240E+00
         4 0.287E-01 0.127E+00 0.272E+00 0.365E+00 0.485E+00 0.948E+00 0.995E+00 0.117E+01


 Contracted 2-electron integrals neglected if value below      1.0D-11
 AO integral compression algorithm  1   Integral accuracy      1.0D-11

     12.845 MB (compressed) written to integral file ( 65.1%)

     Node minimum: 0.786 MB, node maximum: 1.573 MB


 NUMBER OF SORTED TWO-ELECTRON INTEGRALS:     167211.     BUFFER LENGTH:  32768
 NUMBER OF SEGMENTS:   1  SEGMENT LENGTH:     167211      RECORD LENGTH: 524288

 Memory used in sort:       0.72 MW

 SORT1 READ     2418100. AND WROTE      162766. INTEGRALS IN      1 RECORDS. CPU TIME:     0.57 SEC, REAL TIME:     1.06 SEC
 SORT2 READ     1790135. AND WROTE     1833876. INTEGRALS IN     66 RECORDS. CPU TIME:     0.03 SEC, REAL TIME:     0.03 SEC

 Node minimum:      166221.  Node maximum:      167211. integrals

 OPERATOR DM      FOR CENTER  0  COORDINATES:    0.000000    0.000000    0.000000


 **********************************************************************************************************************************
 DATASETS  * FILE   NREC   LENGTH (MB)   RECORD NAMES
              1      18       28.68       500      610      700      900      950      970     1000      129      960     1100   
                                          VAR    BASINP    GEOM    SYMINP    ZMAT    AOBASIS   BASIS     P2S    ABASIS      S 
                                         1400     1410     1200     1210     1080     1600     1650     1700   
                                           T        V       H0       H01     AOSYM     SMH    MOLCAS    OPER   

 PROGRAMS   *        TOTAL       INT
 CPU TIMES  *         5.98      4.64
 REAL TIME  *        13.27 SEC
 DISK USED  *        28.99 MB (local),      372.18 MB (total)
 GA USED    *         0.00 MB       (max)       0.00 MB       (current)
 **********************************************************************************************************************************


 Program * Restricted Hartree-Fock

 Orbital guess generated from atomic densities. Full valence occupancy:    5   2   2   0

 Initial occupancy:   3   1   1   0

 NELEC=   10   SYM=1   MS2= 0   THRE=1.0D-08   THRD=1.0D-06   THRG=1.0D-06  HFMA2=F  DIIS_START=2   DIIS_MAX=10   DIIS_INCORE=F

 Level shifts:    0.00 (CLOSED)    0.00 (OPEN)    0.30 (GAP_MIN)

 ITER           ETOT              DE          GRAD        DDIFF     DIIS  NEXP   TIME(IT)  TIME(TOT)  DIAG
   1      -40.19470095     -40.19470095     0.00D+00     0.14D+00     0     0       0.11      0.19    start
   2      -40.21097621      -0.01627527     0.10D-01     0.14D-01     1     0       0.28      0.47    diag
   3      -40.21311092      -0.00213471     0.39D-02     0.41D-02     2     0       0.16      0.63    diag
   4      -40.21341698      -0.00030605     0.99D-03     0.14D-02     3     0       0.05      0.68    diag
   5      -40.21342190      -0.00000492     0.13D-03     0.33D-03     4     0       0.03      0.71    diag
   6      -40.21342193      -0.00000003     0.96D-05     0.43D-04     5     0       0.32      1.03    diag
   7      -40.21342193      -0.00000000     0.63D-06     0.28D-05     6     0       0.21      1.24    diag
   8      -40.21342193      -0.00000000     0.47D-07     0.15D-06     7     0       0.03      1.27    fixocc
   9      -40.21342193       0.00000000     0.36D-08     0.73D-08     0     0       0.22      1.49    diag

 Final occupancy:   3   1   1   0

 !RHF STATE 1.1 Energy                -40.213421930893
  RHF One-electron energy             -79.820355085801
  RHF Two-electron energy              26.124288219830
  RHF Kinetic energy                   40.171034046809
  RHF Nuclear energy                   13.482644935078
  RHF Virial quotient                  -1.001055185287

 !RHF STATE 1.1 Dipole moment           0.00000000     0.00000000     0.00000000
 Dipole moment /Debye                   0.00000000     0.00000000     0.00000000

 Orbital energies:

           1.1          2.1          3.1          4.1          5.1
    -11.205342    -0.944000    -0.545516     0.143651     0.229684

           1.2          2.2          3.2
     -0.545516     0.229684     0.364184

           1.3          2.3          3.3
     -0.545516     0.229684     0.364184

           1.4          2.4
      0.685025     1.077212


 HOMO      1.2    -0.545516 =     -14.8442eV
 LUMO      4.1     0.143651 =       3.9089eV
 LUMO-HOMO         0.689167 =      18.7532eV

 Orbitals saved in record  2100.2


 **********************************************************************************************************************************
 DATASETS  * FILE   NREC   LENGTH (MB)   RECORD NAMES
              1      18       28.68       500      610      700      900      950      970     1000      129      960     1100   
                                          VAR    BASINP    GEOM    SYMINP    ZMAT    AOBASIS   BASIS     P2S    ABASIS      S 
                                         1400     1410     1200     1210     1080     1600     1650     1700   
                                           T        V       H0       H01     AOSYM     SMH    MOLCAS    OPER   

              2       4        0.42       700     1000      520     2100   
                                         GEOM     BASIS   MCVARS     RHF  

 PROGRAMS   *        TOTAL    HF-SCF       INT
 CPU TIMES  *         7.78      1.64      4.64
 REAL TIME  *        16.05 SEC
 DISK USED  *        29.29 MB (local),      375.48 MB (total)
 GA USED    *         0.00 MB       (max)       0.00 MB       (current)
 **********************************************************************************************************************************


 PROGRAM * CCSD (Closed-shell coupled cluster)     Authors: C. Hampel, H.-J. Werner, 1991, M. Deegan, P.J. Knowles, 1992


 Convergence thresholds:  THRVAR = 1.00D-12  THRDEN = 1.00D-08

 CCSD(T)     terms to be evaluated (factor= 1.000)


 Using ITF CCSD(T) gradient implementation

 Number of core orbitals:           1 (   1   0   0   0 )
 Number of closed-shell orbitals:   4 (   2   1   1   0 )
 Number of external orbitals:      81 (  30  20  20  11 )

 Molecular orbitals read from record     2100.2  Type=RHF/CANONICAL  

 Integral transformation finished. Total CPU:  14.81 sec, npass=  1  Memory used:   0.19 MW
 Time for re-packing tensors:             0.00 sec
  Reference energy                    -40.213421930893

  MP2 correlation energy               -0.198242929513
  MP2 total energy                    -40.411664860406

 ITER.      SQ.NORM     CORR.ENERGY   TOTAL ENERGY   ENERGY CHANGE        DEN1      VAR(S)    VAR(P)  DIIS     TIME
   1      1.07160767    -0.21721532   -40.43063725    -0.01897239    -0.01336838  4.98e-04  1.05e-03  1  1     2.45
   2      1.07635416    -0.21826586   -40.43168779    -0.00105054    -0.00481555  4.74e-06  1.52e-04  2  2     5.44
   3      1.07802008    -0.21842913   -40.43185106    -0.00016327    -0.00131346  1.96e-06  1.65e-05  3  3     8.33
   4      1.07865507    -0.21840519   -40.43182712     0.00002394    -0.00049821  5.75e-08  1.71e-06  4  4    12.15
   5      1.07884781    -0.21839946   -40.43182139     0.00000573    -0.00012770  1.81e-08  8.15e-08  5  5    13.67
   6      1.07887897    -0.21839504   -40.43181697     0.00000442    -0.00002452  4.60e-10  4.00e-09  6  0    16.77
   7      1.07888136    -0.21839412   -40.43181605     0.00000092    -0.00000285  1.18e-11  2.24e-10  6  1    19.45
   8      1.07888165    -0.21839401   -40.43181594     0.00000011    -0.00000031  1.80e-13  1.95e-11  6  2    22.21
   9      1.07888178    -0.21839400   -40.43181593     0.00000001    -0.00000008  3.76e-14  8.91e-13          23.87

 Norm of t1 vector:      0.02874201     S-energy:      0.00000000   T1 diagnostic:  0.00718550

 Time per iteration:                      2.66 sec

 RESULTS
 =======

  Reference energy                    -40.213421930893
  CCSD correlation energy              -0.218393999427
  CCSD total energy                   -40.431815930320

  Triples (T) contribution             -0.006263365578
  Total correlation energy             -0.224657365005
  CCSD[T] total energy                -40.438272558625
 !CCSD(T) total energy                -40.438079295899

 Starting CP-CCSD(T) iterations.   Author: W. Gyorffy (2015)

 ITER.      NRM1           NRM2      VAR(S)+VAR(P)   DIIS    TIME
   1     0.00033128     0.24454523     1.43e-03      1  1    2.60
   2     0.00034241     0.24569315     2.14e-05      2  2    6.31
   3     0.00033709     0.24614915     1.97e-06      3  3    8.01
   4     0.00033544     0.24627770     9.39e-08      4  4   10.63
   5     0.00033453     0.24628948     6.94e-09      5  5   13.36
   6     0.00033413     0.24628346     4.28e-10      6  0   15.53
   7     0.00033397     0.24628090     1.51e-11      6  1   17.61
   8     0.00033393     0.24628020     8.30e-13             19.81


 Time per iteration:                      2.48 sec

 CPHF start vector      0.2 not found

 Starting Coupled-perturbed Hartree-Fock, convergence threshold= 1.0D-06

 ITER   MIC  DIIS      VAR         VARC       CPU
   1     0     1    0.12D-02    0.11D-02     0.02
   2     2     2    0.12D-03    0.15D-04     0.03
   3     3     3    0.11D-05    0.41D-06     0.03
   4     1     4    0.16D-06    0.21D-07     0.03

 CPHF convergence reached in  4 macroiterations and    6 microiterations.   Accuracy: 1.5984D-07

 CPHF solution written to record  8500.2

 Dipole moments (unrelaxed):            0.00000000     0.00000000     0.00000000
 Orbital relaxation contribution:      -0.00000000    -0.00000000    -0.00000000
 !CCSD(T) STATE 1.1 Dipole moment       0.00000000     0.00000000     0.00000000
 Dipole moment /Debye                   0.00000000     0.00000000     0.00000000

 CPU-time for coupled-perturbed hartree-fock:          0.16 sec

 Number of N-1 electron functions:               4
 Number of N-2 electron functions:              10
 Number of singly external CSFs:               100
 Number of doubly external CSFs:             13645
 Total number of CSFs:                       13746

 CCSD(T) gradient info saved on record        55555.1




 **********************************************************************************************************************************
 DATASETS  * FILE   NREC   LENGTH (MB)   RECORD NAMES
              1      21       34.67       500      610      700      900      950      970     1000      129      960     1100   
                                          VAR    BASINP    GEOM    SYMINP    ZMAT    AOBASIS   BASIS     P2S    ABASIS      S 
                                         1400     1410     1200     1210     1080     1600     1650     1700     1380     3791   
                                           T        V       H0       H01     AOSYM     SMH    MOLCAS    OPER     JKOP   
                                        55555   
                                        CCSD(T)    

              2       5        0.52       700     1000      520     2100     8500   
                                         GEOM     BASIS   MCVARS     RHF     CPHF   

 PROGRAMS   *        TOTAL   CCSD(T)    HF-SCF       INT
 CPU TIMES  *       138.67    130.65      1.64      4.64
 REAL TIME  *       166.17 SEC
 DISK USED  *        35.25 MB (local),      441.03 MB (total)
 SF USED    *        42.71 MB
 GA USED    *         0.00 MB       (max)       0.00 MB       (current)
 **********************************************************************************************************************************


 PROGRAM * OPT (Geometry optimization)     Authors: F. Eckert and H.-J. Werner


 BFGS update of hessian

 *** Long output written to logfile /home/koe/bachelorthesis/calc/CH4/new_opt_calc_CCSD/ch4_opt_ccsd.log ***


 Geometry optimization using default procedure for command CCSD(T)

 Geometry written to block  1 of record 700

 Making model hessian for Z-matrix coordinates

 Entering Rational Function Geometry Optimization

 ITER.   ENERGY(OLD)    ENERGY(NEW)      DE          GRADMAX     GRADNORM    GRADRMS     STEPMAX     STEPLEN     STEPRMS   CPU-time
   1   -40.43807930   -40.43809789    -0.00001859  0.00755097  0.00755097  0.00533934  0.00387790  0.00387790  0.00193895   1021.64
   2   -40.43809789   -40.43809938    -0.00000149  0.00204822  0.00204822  0.00144831  0.00144342  0.00144342  0.00072171   2006.96
   3   -40.43809938   -40.43809938    -0.00000000  0.00001633  0.00001633  0.00001155  0.00001160  0.00001160  0.00000580   2916.61
   4   -40.43809938   -40.43809938    -0.00000000  0.00000062  0.00000062  0.00000044  0.00000042  0.00000042  0.00000021   3710.51
   5   -40.43809938   -40.43809938    -0.00000000  0.00000022  0.00000022  0.00000015  0.00000011  0.00000011  0.00000006   4498.36
   6   -40.43809938   -40.43809938    -0.00000000  0.00000009  0.00000009  0.00000007  0.00000008  0.00000008  0.00000004   5290.12
   7   -40.43809938   -40.43809938     0.00000000  0.00000005  0.00000005  0.00000004  0.00000003  0.00000003  0.00000001   6083.72
   8   -40.43809938   -40.43809938     0.00000000  0.00000001  0.00000001  0.00000000  0.00000000  0.00000000  0.00000000   6873.95

 END OF GEOMETRY OPTIMIZATION.

 Optimized variables
 B1=                  1.08900155 ANG
 A1=                109.47122062 DEGREE

 **********************************************************************************************************************************

 Geometry written to block  1 of record 700

 Recomputing wavefunction for reoriented structure

 Current geometry (xyz format, in Angstrom)

    5
 CCSD(T)/VTZ  ENERGY=-40.43809938
 C          0.0000000000        0.0000000000       -0.0000000000
 H          0.8891660425        0.0000000000        0.6287353384
 H         -0.8891660425        0.0000000000        0.6287353384
 H          0.0000000000       -0.8891660427       -0.6287353382
 H          0.0000000000        0.8891660427       -0.6287353382

 **********************************************************************************************************************************


 **********************************************************************************************************************************
 DATASETS  * FILE   NREC   LENGTH (MB)   RECORD NAMES
              1      21       34.67       500      610      700      900      950      970     1000      129      960     1100   
                                          VAR    BASINP    GEOM    SYMINP    ZMAT    AOBASIS   BASIS     P2S    ABASIS      S 
                                         1400     1410     1200     1210     1080     1600     1650     1700     1380     3791   
                                           T        V       H0       H01     AOSYM     SMH    MOLCAS    OPER     JKOP   
                                        55555   
                                        CCSD(T)    

              2       6        0.57       700     1000      520     2100     8500     9001   
                                         GEOM     BASIS   MCVARS     RHF     CPHF    DEN_MP2    

 PROGRAMS   *        TOTAL      OPTG   CCSD(T)    HF-SCF       INT
 CPU TIMES  *      7106.05   6967.37    130.65      1.64      4.64
 REAL TIME  *      7460.35 SEC
 DISK USED  *        39.93 MB (local),      498.21 MB (total)
 SF USED    *       105.24 MB
 GA USED    *         0.00 MB       (max)       0.00 MB       (current)
 **********************************************************************************************************************************


 PROGRAM * HESSIAN

 Computing numerical hessian using default procedure for command CCSD(T)

 Symmetry elements for unique displacements: X  Y  

 Using AUTO symmetry option

 Running default procedure: HF-SCF000  CCSD(T)


 Numerically approximating hessian using central gradient differences

 Task list generated. Total number of displacements:     14

 All  14 tasks completed.  CPU=   3264.40 sec, Elapsed=   2624.25 sec.

 CCSD(T) hessian saved to record  5300.2

 PROGRAM * FREQUENCIES (Calculation of harmonic vibrational spectra for CCSD(T))


 Permanent Dipole Moment [debye]
   1-  3    0.000000    0.000000    0.000000

 Dipole Moment Norm    0.0000000 [debye]

 Dipole Moment Derivatives [debye/ang]
              1             2             3             4             5             6             7             8
    1     0.0817926     0.0000000     0.0000000    -0.3314074     0.0000000    -0.4399341    -0.3314074     0.0000000
    2     0.0000000     0.0817932     0.0000000     0.0000000     0.2907210     0.0000000     0.0000000     0.2907210
    3     0.0000000     0.0000000     0.0810602    -0.4399378     0.0000000    -0.0203198     0.4399378     0.0000000
              9            10            11            12            13            14            15
    1     0.4399341     0.2907208     0.0000000     0.0000000     0.2907208     0.0000000     0.0000000
    2     0.0000000     0.0000000    -0.3314072    -0.4399342     0.0000000    -0.3314072     0.4399342
    3    -0.0203198     0.0000000    -0.4399379    -0.0203198     0.0000000     0.4399379    -0.0203198

 Projecting out rotations and translations

 Force Constants (Second Derivatives of the Energy) in [a.u.]
                             CX1         CY1         CZ1         H1X2        H1Y2    
           CX1           0.5469704
           CY1           0.0000000   0.5469704
           CZ1           0.0000000   0.0000000   0.5469783
           H1X2         -0.2282422  -0.0000000  -0.1293999   0.2458597
           H1Y2         -0.0000000  -0.0452430   0.0000000  -0.0000000   0.0451480
           H1Z2         -0.1294000   0.0000000  -0.1367446   0.1419246   0.0000000
           H2X3         -0.2282422  -0.0000000   0.1293999  -0.0196196  -0.0000000
           H2Y3          0.0000000  -0.0452430   0.0000000   0.0000000  -0.0019071
           H2Z3          0.1294000   0.0000000  -0.1367446  -0.0166357  -0.0000000
           H3X4         -0.0452430   0.0000000   0.0000000   0.0010010  -0.0235276
           H3Y4         -0.0000000  -0.2282422  -0.1293999  -0.0000011   0.0010010
           H3Z4          0.0000000  -0.1294000  -0.1367446   0.0020555  -0.0145801
           H4X5         -0.0452430  -0.0000000   0.0000000   0.0010010   0.0235276
           H4Y5         -0.0000000  -0.2282422   0.1293999   0.0000011   0.0010010
           H4Z5          0.0000000   0.1294000  -0.1367446   0.0020555   0.0145801
                             H1Z2        H2X3        H2Y3        H2Z3        H3X4    
           H1Z2          0.1455044
           H2X3          0.0166357   0.2458597
           H2Y3         -0.0000000   0.0000000   0.0451480
           H2Z3          0.0127659  -0.1419246   0.0000000   0.1455044
           H3X4         -0.0145801   0.0010010   0.0235276   0.0145801   0.0451480
           H3Y4          0.0020555   0.0000011   0.0010010   0.0020555  -0.0000000
           H3Z4         -0.0107628  -0.0020555  -0.0145801  -0.0107628   0.0000000
           H4X5         -0.0145801   0.0010010  -0.0235276   0.0145801  -0.0019071
           H4Y5         -0.0020555  -0.0000011   0.0010010  -0.0020555   0.0000000
           H4Z5         -0.0107628  -0.0020555   0.0145801  -0.0107628   0.0000000
                             H3Y4        H3Z4        H4X5        H4Y5        H4Z5    
           H3Y4          0.2458597
           H3Z4          0.1419246   0.1455044
           H4X5         -0.0000000   0.0000000   0.0451480
           H4Y5         -0.0196196   0.0166357  -0.0000000   0.2458597
           H4Z5         -0.0166357   0.0127659  -0.0000000  -0.1419246   0.1455044


 Atomic Masses
   1-  5   12.000000    1.007825    1.007825    1.007825    1.007825

 Mass weighted Second Derivative Matrix
                             CX1         CY1         CZ1         H1X2        H1Y2    
           CX1           0.0455809
           CY1           0.0000000   0.0455809
           CZ1           0.0000000   0.0000000   0.0455815
           H1X2         -0.0656316  -0.0000000  -0.0372092   0.2439508
           H1Y2         -0.0000000  -0.0130097   0.0000000  -0.0000000   0.0447975
           H1Z2         -0.0372093   0.0000000  -0.0393212   0.1408227   0.0000000
           H2X3         -0.0656316  -0.0000000   0.0372092  -0.0194672  -0.0000000
           H2Y3          0.0000000  -0.0130097   0.0000000   0.0000000  -0.0018923
           H2Z3          0.0372093   0.0000000  -0.0393212  -0.0165065  -0.0000000
           H3X4         -0.0130097   0.0000000   0.0000000   0.0009933  -0.0233449
           H3Y4         -0.0000000  -0.0656316  -0.0372092  -0.0000011   0.0009933
           H3Z4          0.0000000  -0.0372093  -0.0393212   0.0020395  -0.0144669
           H4X5         -0.0130097  -0.0000000   0.0000000   0.0009933   0.0233449
           H4Y5         -0.0000000  -0.0656316   0.0372092   0.0000011   0.0009933
           H4Z5          0.0000000   0.0372093  -0.0393212   0.0020395   0.0144669
                             H1Z2        H2X3        H2Y3        H2Z3        H3X4    
           H1Z2          0.1443746
           H2X3          0.0165065   0.2439508
           H2Y3         -0.0000000   0.0000000   0.0447975
           H2Z3          0.0126668  -0.1408227   0.0000000   0.1443746
           H3X4         -0.0144669   0.0009933   0.0233449   0.0144669   0.0447975
           H3Y4          0.0020395   0.0000011   0.0009933   0.0020395  -0.0000000
           H3Z4         -0.0106793  -0.0020395  -0.0144669  -0.0106793   0.0000000
           H4X5         -0.0144669   0.0009933  -0.0233449   0.0144669  -0.0018923
           H4Y5         -0.0020395  -0.0000011   0.0009933  -0.0020395   0.0000000
           H4Z5         -0.0106793  -0.0020395   0.0144669  -0.0106793   0.0000000
                             H3Y4        H3Z4        H4X5        H4Y5        H4Z5    
           H3Y4          0.2439508
           H3Z4          0.1408227   0.1443746
           H4X5         -0.0000000   0.0000000   0.0447975
           H4Y5         -0.0194672   0.0165065  -0.0000000   0.2439508
           H4Z5         -0.0165065   0.0126668  -0.0000000  -0.1408227   0.1443746


 Mass Weighted 2nd Derivative Matrix Eigenvalues
   1- 10    0.000000    0.000000    0.000000    0.000000    0.000000    0.000000    0.068356    0.068356    0.068357    0.093379
  11- 15    0.093380    0.348441    0.376322    0.376322    0.376323

 Mass Weighted 2nd Derivative Matrix Eigenvectors
              1             2             3             4             5             6             7             8
    1     0.4294762     0.7193703     0.1799498    -0.0868342    -0.0258653    -0.0774667    -0.3990900     0.0000000
    2    -0.1470156     0.0228236     0.5534820     0.5729664    -0.2729210     0.1314628     0.0000000    -0.3990900
    3     0.0913693     0.1125424    -0.2064541     0.3972452     0.5835393     0.4319448     0.0000000     0.0000000
    4     0.4222638     0.0373535     0.0491741     0.0265866    -0.0708580    -0.0042750     0.1302045     0.0000000
    5    -0.0035263    -0.1289841     0.5146773     0.0866745     0.3141909    -0.2238206     0.0000000     0.5583509
    6    -0.3946746     0.2746178    -0.0556225     0.0419352     0.2587188     0.0994752    -0.3027452     0.0000000
    7     0.4222638     0.0373535     0.0491741     0.0265866    -0.0708580    -0.0042750     0.1302045     0.0000000
    8    -0.0568456     0.1026370    -0.1855603     0.5099461    -0.2042029    -0.2965195     0.0000000     0.5583509
    9     0.4476327    -0.2093876    -0.0640393     0.1883101     0.0795034     0.1508821     0.3027452     0.0000000
   10    -0.1466777     0.2637864     0.4052445    -0.2885519     0.3150632    -0.0042757     0.5583509     0.0000000
   11    -0.0550250     0.0264022     0.1562423     0.0337837    -0.2131803     0.3363665     0.0000000     0.1302045
   12     0.0440429     0.0046308    -0.0539505     0.3021712     0.3587389    -0.2966364     0.0000000    -0.3027452
   13    -0.1999970     0.4954075    -0.2949931     0.1347197    -0.2033305    -0.0769745     0.5583509     0.0000000
   14    -0.0550250     0.0264022     0.1562423     0.0337837    -0.2131803     0.3363665     0.0000000     0.1302045
   15     0.0089152     0.0605993    -0.0657113    -0.0719260    -0.0205168     0.5469937     0.0000000     0.3027452
              9            10            11            12            13            14            15
    1     0.0000000     0.0000000     0.0000000     0.0000000     0.0000000    -0.3036305     0.0000000
    2     0.0000000     0.0000000     0.0000000     0.0000000    -0.3036305     0.0000000     0.0000000
    3     0.3990889    -0.0000000     0.0000000     0.0000000     0.0000000     0.0000000    -0.3036320
    4     0.3027466    -0.2886753     0.0000000     0.4082481     0.0000000     0.5433053     0.3979252
    5     0.0000000     0.0000000     0.5000000     0.0000000    -0.0194474     0.0000000     0.0000000
    6    -0.3442768     0.4082482     0.0000000     0.2886754     0.0000000     0.3979263     0.2619302
    7    -0.3027466     0.2886753     0.0000000    -0.4082481     0.0000000     0.5433053    -0.3979252
    8     0.0000000     0.0000000    -0.5000000     0.0000000    -0.0194474     0.0000000     0.0000000
    9    -0.3442768     0.4082482     0.0000000     0.2886754     0.0000000    -0.3979263     0.2619302
   10     0.0000000     0.0000000    -0.5000000     0.0000000     0.0000000    -0.0194474     0.0000000
   11     0.3027466     0.2886754     0.0000000    -0.4082481     0.5433053     0.0000000     0.3979252
   12    -0.3442768    -0.4082481     0.0000000    -0.2886753     0.3979263     0.0000000     0.2619302
   13     0.0000000     0.0000000     0.5000000     0.0000000     0.0000000    -0.0194474     0.0000000
   14    -0.3027466    -0.2886754     0.0000000     0.4082481     0.5433053     0.0000000    -0.3979252
   15    -0.3442768    -0.4082481     0.0000000    -0.2886753    -0.3979263     0.0000000     0.2619302

   Low Vibration      Wavenumber
        Nr             [1/cm] 
        1                0.00
        2                0.00
        3                0.00
        4                0.00
        5                0.00
        6                0.00

     Vibration        Wavenumber
        Nr             [1/cm] 
        1             1343.98
        2             1343.98
        3             1343.99
        4             1570.83
        5             1570.83
        6             3034.37
        7             3153.44
        8             3153.44
        9             3153.44

 FREQUENCIES * CALCULATION OF NORMAL MODES FOR CCSD(T)


 Atomic Coordinates

  Nr  Atom  Charge       X              Y              Z

   1   C     6.00    0.000000000    0.000000000   -0.000000000
   2   H1    1.00    1.680280300    0.000000000    1.188137595
   3   H2    1.00   -1.680280300    0.000000000    1.188137595
   4   H3    1.00    0.000000000   -1.680280300   -1.188137594
   5   H4    1.00    0.000000000    1.680280300   -1.188137594

 Gradient norm at reference geometry: 0.13265D-07

 Normal Modes

                              1 B2        2 B1        3 A1        4 A1        5 A2 
 Wavenumbers [cm-1]         1343.98     1343.98     1343.99     1570.83     1570.83
 Intensities [km/mol]         10.28       10.28       10.29        0.00        0.00
 Intensities [relative]       46.19       46.19       46.21        0.00        0.00
           CX1             -0.11521     0.00000     0.00000    -0.00000     0.00000
           CY1             -0.00000    -0.11521     0.00000     0.00000    -0.00000
           CZ1              0.00000     0.00000     0.11521    -0.00000    -0.00000
           H1X2             0.12970    -0.00000     0.30157    -0.28755    -0.00000
           H1Y2             0.00000     0.55618    -0.00000    -0.00000     0.49806
           H1Z2            -0.30157     0.00000    -0.34294     0.40666     0.00000
           H2X3             0.12970    -0.00000    -0.30157     0.28755     0.00000
           H2Y3             0.00000     0.55618    -0.00000     0.00000    -0.49806
           H2Z3             0.30157    -0.00000    -0.34294     0.40666     0.00000
           H3X4             0.55618    -0.00000    -0.00000     0.00000    -0.49806
           H3Y4             0.00000     0.12970     0.30157     0.28755     0.00000
           H3Z4            -0.00000    -0.30157    -0.34294    -0.40666    -0.00000
           H4X5             0.55618    -0.00000    -0.00000    -0.00000     0.49806
           H4Y5             0.00000     0.12970    -0.30157    -0.28755    -0.00000
           H4Z5             0.00000     0.30157    -0.34294    -0.40666    -0.00000

                              6 A1        7 B1        8 B2        9 A1 
 Wavenumbers [cm-1]         3034.37     3153.44     3153.44     3153.44
 Intensities [km/mol]          0.00       22.27       22.27       22.26
 Intensities [relative]        0.00      100.00      100.00       99.98
           CX1             -0.00000    -0.00000    -0.08765    -0.00000
           CY1             -0.00000    -0.08765    -0.00000     0.00000
           CZ1             -0.00000    -0.00000     0.00000    -0.08765
           H1X2             0.40666     0.00000     0.54119     0.39638
           H1Y2             0.00000    -0.01937     0.00000     0.00000
           H1Z2             0.28755     0.00000     0.39638     0.26091
           H2X3            -0.40666    -0.00000     0.54119    -0.39638
           H2Y3            -0.00000    -0.01937     0.00000     0.00000
           H2Z3             0.28755     0.00000    -0.39638     0.26091
           H3X4            -0.00000    -0.00000    -0.01937     0.00000
           H3Y4            -0.40666     0.54119    -0.00000     0.39638
           H3Z4            -0.28755     0.39638    -0.00000     0.26091
           H4X5             0.00000     0.00000    -0.01937     0.00000
           H4Y5             0.40666     0.54119     0.00000    -0.39638
           H4Z5            -0.28755    -0.39638    -0.00000     0.26091


 Normal Modes of low/zero frequencies

                                  1           2           3           4           5
 Wavenumbers [cm-1]            0.00        0.00        0.00        0.00        0.00
 Intensities [km/mol]          0.00        0.00        0.00        0.00        0.00
 Intensities [relative]        0.00        0.00        0.00        0.00        0.00
           CX1              0.12398     0.20766     0.05195    -0.02507    -0.00747
           CY1             -0.04244     0.00659     0.15978     0.16540    -0.07879
           CZ1              0.02638     0.03249    -0.05960     0.11467     0.16845
           H1X2             0.42062     0.03721     0.04898     0.02648    -0.07058
           H1Y2            -0.00351    -0.12848     0.51268     0.08634     0.31297
           H1Z2            -0.39314     0.27355    -0.05541     0.04177     0.25771
           H2X3             0.42062     0.03721     0.04898     0.02648    -0.07058
           H2Y3            -0.05662     0.10224    -0.18484     0.50796    -0.20341
           H2Z3             0.44589    -0.20857    -0.06379     0.18758     0.07919
           H3X4            -0.14611     0.26276     0.40367    -0.28743     0.31384
           H3Y4            -0.05481     0.02630     0.15563     0.03365    -0.21235
           H3Z4             0.04387     0.00461    -0.05374     0.30100     0.35734
           H4X5            -0.19922     0.49348    -0.29385     0.13420    -0.20254
           H4Y5            -0.05481     0.02630     0.15563     0.03365    -0.21235
           H4Z5             0.00888     0.06036    -0.06546    -0.07165    -0.02044

                                  6
 Wavenumbers [cm-1]            0.00
 Intensities [km/mol]          0.00
 Intensities [relative]        0.00
           CX1             -0.02236
           CY1              0.03795
           CZ1              0.12469
           H1X2            -0.00426
           H1Y2            -0.22295
           H1Z2             0.09909
           H2X3            -0.00426
           H2Y3            -0.29537
           H2Z3             0.15030
           H3X4            -0.00426
           H3Y4             0.33506
           H3Z4            -0.29548
           H4X5            -0.07668
           H4Y5             0.33506
           H4Z5             0.54487


 Frequencies dumped to record   5400.2

 Zero point energy:  0.04480767 [H]     9834.15 [1/CM]      117.64 [KJ/MOL]
 Frequency information read from record  5400.2

 Recomputing wavefunction at initial geometry


 **********************************************************************************************************************************
 DATASETS  * FILE   NREC   LENGTH (MB)   RECORD NAMES
              1      21       34.67       500      610      700      900      950      970     1000      129      960     1100   
                                          VAR    BASINP    GEOM    SYMINP    ZMAT    AOBASIS   BASIS     P2S    ABASIS      S 
                                         1400     1410     1200     1210     1080     1600     1650     1700     1380     3791   
                                           T        V       H0       H01     AOSYM     SMH    MOLCAS    OPER     JKOP   
                                        55555   
                                        CCSD(T)    

              2       9        0.58       700     1000      520     2100     8500     9001     5300     5450     5400   
                                         GEOM     BASIS   MCVARS     RHF     CPHF    DEN_MP2   HESS     NMOD     FREQ   

 PROGRAMS   *        TOTAL      FREQ      OPTG   CCSD(T)    HF-SCF       INT
 CPU TIMES  *     10328.18   3222.12   6967.37    130.65      1.64      4.64
 REAL TIME  *     10178.83 SEC
 DISK USED  *       304.30 MB (local),        3.42 GB (total)
 SF USED    *       105.24 MB
 GA USED    *         0.00 MB       (max)       0.00 MB       (current)
 **********************************************************************************************************************************

 Dump information in style MOLDEN to ch4_opt.dat                                                                     

 Molecular orbitals read from record     2100.2  Type=RHF/CANONICAL (state 1.1)
 Occupation numbers read from record     2100.2  Type=RHF/RHF (state 1.1)
 Orbital energies read from record       2100.2  Type=RHF/CANONICAL (state 1.1)
 Redundancy group numbers read from rec  2100.2  Type=RHF/RHF (state 1.1)

 DUMP ORBITAL  1.1 AS ORBITAL    1  occ=    2.0000  eig=  -11.2068  GROUP=   2
 DUMP ORBITAL  2.1 AS ORBITAL    2  occ=    2.0000  eig=   -0.9428  GROUP=   2
 DUMP ORBITAL  1.3 AS ORBITAL    3  occ=    2.0000  eig=   -0.5448  GROUP=   2
 DUMP ORBITAL  3.1 AS ORBITAL    4  occ=    2.0000  eig=   -0.5448  GROUP=   2
 DUMP ORBITAL  1.2 AS ORBITAL    5  occ=    2.0000  eig=   -0.5448  GROUP=   2

 Total charge:      10.000000
 Frequency information read from record  5400.2

 **********************************************************************************************************************************

 CCSD(T)/cc-pVTZ energy=    -40.438099377977

   OPTG(CCSD(T))         CCSD(T)          HF-SCF
    -40.43809938    -40.43807930    -40.21342193
 **********************************************************************************************************************************
 Molpro calculation terminated
