
 Working directory              : /scratch/koe/tmpdir_613274/molpro.slT6sYgPKs/
 Global scratch directory       : /scratch/koe/tmpdir_613274/molpro.slT6sYgPKs/
 Wavefunction directory         : /home/koe/bachelorthesis/calc/MAIN/H2CO3/opt_calc_ccsd/
 Main file repository           : /home/koe/bachelorthesis/calc/MAIN/H2CO3/opt_calc_ccsd/

 id        : liedlgroup

 Nodes     nprocs
 rune01      12
 GA implementation: MPI file
 GA implementation (serial work in mppx): MPI file

 Using customized tuning parameters: mindgm=1; mindgv=20; mindgc=4; mindgr=1; noblas=0; minvec=7
 default implementation of scratch files=sf  


 Variables initialized (1015), CPU time= 0.01 sec
 
 memory,300,m
 
 
 orient,mass
 geometry={
 O1
 C,O1,B1
 O2,C,B2,O1,A1
 H1,O2,B3,C,A2,O1,0.0
 O3,C,B2,O1,A1,H1,180.0
 H2,O3,B3,C,A2,O1,0.0
 }
  B1=                  1.21742568 ANG
  B2=                  1.35261183 ANG
  A1=                125.92848763 DEGREE
  B3=                  0.97078208 ANG
  A2=                105.67504482 DEGREE
 
 mass,iso
 basis=vtz
 
 {hf
 start,atden}
 ccsd(t)
 
 {optg, GRADIENT=3.0D-8, ENERGY=1.0D-10, STEP=3.0D-8}
 {freq,symm=auto,print=0, step=0.0001}
 put,molden,h2co3_molden.dat
 
 
 
 
 Commands initialized (818), CPU time= 0.01 sec, 672 directives.
 Default parameters read. Elapsed time= 0.20 sec

 Checking input...
 Passed
1


                                         ***  PROGRAM SYSTEM MOLPRO  ***
                                       Copyright, TTI GmbH Stuttgart, 2015
                                    Version 2022.1 linked Jan 25 2022 12:44:58


 **********************************************************************************************************************************
 LABEL *                                                                                 
  64 bit mpp version                                                                     DATE: 02-Jun-22          TIME: 13:19:24  
 **********************************************************************************************************************************

 SHA1:             f3d4322b9bdbeed63a35be676bd653804e8a9433
 **********************************************************************************************************************************

 Memory per process:       300 MW
 Total memory per node:   3600 MW

 GA preallocation disabled
 GA check disabled

 Variable memory set to 300.0 MW

 ZCENTRE=MASS

 SETTING B1             =         1.21742568  ANG                             
 SETTING B2             =         1.35261183  ANG                             
 SETTING A1             =       125.92848763  DEGREE                          
 SETTING B3             =         0.97078208  ANG                             
 SETTING A2             =       105.67504482  DEGREE                          


 Using masses of most abundant isotopes

 **********************************************************************************************************************************
 SETTING BASIS          =    VTZ


 Recomputing integrals since basis changed


 Using spherical harmonics

 Library entry O      S cc-pVTZ              selected for orbital group  1
 Library entry O      P cc-pVTZ              selected for orbital group  1
 Library entry O      D cc-pVTZ              selected for orbital group  1
 Library entry O      F cc-pVTZ              selected for orbital group  1
 Library entry C      S cc-pVTZ              selected for orbital group  2
 Library entry C      P cc-pVTZ              selected for orbital group  2
 Library entry C      D cc-pVTZ              selected for orbital group  2
 Library entry C      F cc-pVTZ              selected for orbital group  2
 Library entry H      S cc-pVTZ              selected for orbital group  4
 Library entry H      P cc-pVTZ              selected for orbital group  4
 Library entry H      D cc-pVTZ              selected for orbital group  4


 PROGRAM * SEWARD (Integral evaluation for generally contracted gaussian basis sets)     Author: Roland Lindh, 1990

 Geometry written to block  1 of record 700

 Orientation using atomic masses  
 Molecule type: Asymmetric top,     Order of principal axis = 2
 Symmetry elements: X,Y
 Rotational constants:       5.7033574     11.6741179     11.1512873 GHz

 Point group  C2v 



 ATOMIC COORDINATES

 NR  ATOM    CHARGE       X              Y              Z

   1  O1      8.00    0.000000000    0.000000000   -2.492665231
   2  C       6.00    0.000000000    0.000000000   -0.192064119
   3  O2      8.00    0.000000000    2.069774357    1.307771557   
   4  H1      1.00    0.000000000    3.507539862    0.168356980
   5  O3      8.00    0.000000000   -2.069774357    1.307771557 
   6  H2      1.00    0.000000000   -3.507539862    0.168356980

 Bond lengths in Bohr (Angstrom)

 1-2  2.300601112  2-3  2.556065912  2-4  2.556065912  3-5  1.834512258  4-6  1.834512258
     ( 1.217425680)     ( 1.352611830)     ( 1.352611830)     ( 0.970782080)     ( 0.970782080)

 Bond angles

  1-2-3  125.92848763   1-2-4  125.92848763   2-3-5  105.67504482   2-4-6  105.67504482

  3-2-4  108.14302474

 NUCLEAR CHARGE:                   32
 NUMBER OF PRIMITIVE AOS:         222
 NUMBER OF SYMMETRY AOS:          200
 NUMBER OF CONTRACTIONS:          148   (   56A1  +   28B1  +   44B2  +   20A2  )
 NUMBER OF INNER CORE ORBITALS:     0   (    0A1  +    0B1  +    0B2  +    0A2  )
 NUMBER OF OUTER CORE ORBITALS:     4   (    3A1  +    0B1  +    1B2  +    0A2  )
 NUMBER OF VALENCE ORBITALS:       18   (    8A1  +    3B1  +    6B2  +    1A2  )


 NUCLEAR REPULSION ENERGY  122.17303562

 Eigenvalues of metric

         1 0.203E-02 0.261E-02 0.403E-02 0.416E-02 0.545E-02 0.769E-02 0.124E-01 0.313E-01
         2 0.292E-01 0.379E-01 0.441E-01 0.753E-01 0.813E-01 0.128E+00 0.184E+00 0.282E+00
         3 0.170E-02 0.366E-02 0.649E-02 0.836E-02 0.244E-01 0.288E-01 0.406E-01 0.412E-01
         4 0.415E-01 0.989E-01 0.121E+00 0.262E+00 0.296E+00 0.430E+00 0.468E+00 0.543E+00


 Contracted 2-electron integrals neglected if value below      1.0D-11
 AO integral compression algorithm  1   Integral accuracy      1.0D-11

     83.100 MB (compressed) written to integral file ( 52.5%)

     Node minimum: 6.291 MB, node maximum: 7.602 MB


 NUMBER OF SORTED TWO-ELECTRON INTEGRALS:    1307520.     BUFFER LENGTH:  32768
 NUMBER OF SEGMENTS:   1  SEGMENT LENGTH:    1307520      RECORD LENGTH: 524288

 Memory used in sort:       1.86 MW

 SORT1 READ    19780500. AND WROTE     1279356. INTEGRALS IN      4 RECORDS. CPU TIME:     0.31 SEC, REAL TIME:     0.34 SEC
 SORT2 READ    15403348. AND WROTE    15784075. INTEGRALS IN    324 RECORDS. CPU TIME:     0.07 SEC, REAL TIME:     0.07 SEC

 Node minimum:     1302551.  Node maximum:     1326498. integrals

 OPERATOR DM      FOR CENTER  0  COORDINATES:    0.000000    0.000000    0.000000


 **********************************************************************************************************************************
 DATASETS  * FILE   NREC   LENGTH (MB)   RECORD NAMES
              1      18       28.87       500      610      700      900      950      970     1000      129      960     1100   
                                          VAR    BASINP    GEOM    SYMINP    ZMAT    AOBASIS   BASIS     P2S    ABASIS      S 
                                         1400     1410     1200     1210     1080     1600     1650     1700   
                                           T        V       H0       H01     AOSYM     SMH    MOLCAS    OPER   

 PROGRAMS   *        TOTAL       INT
 CPU TIMES  *         0.89      0.71
 REAL TIME  *         1.21 SEC
 DISK USED  *        29.21 MB (local),      610.11 MB (total)
 GA USED    *         0.00 MB       (max)       0.00 MB       (current)
 **********************************************************************************************************************************


 Program * Restricted Hartree-Fock

 Orbital guess generated from atomic densities. Full valence occupancy:   11   3   7   1

 Initial occupancy:   8   2   5   1

 NELEC=   32   SYM=1   MS2= 0   THRE=1.0D-08   THRD=1.0D-06   THRG=1.0D-06  HFMA2=F  DIIS_START=2   DIIS_MAX=10   DIIS_INCORE=F

 Level shifts:    0.00 (CLOSED)    0.00 (OPEN)    0.30 (GAP_MIN)

 ITER           ETOT              DE          GRAD        DDIFF     DIIS  NEXP   TIME(IT)  TIME(TOT)  DIAG
   1     -263.63536547    -263.63536547     0.00D+00     0.13D+00     0     0       0.01      0.02    start
   2     -263.70952276      -0.07415730     0.15D-01     0.23D-01     1     0       0.00      0.02    diag
   3     -263.75471555      -0.04519278     0.10D-01     0.89D-02     2     0       0.00      0.02    diag
   4     -263.75587761      -0.00116207     0.12D-02     0.15D-02     3     0       0.01      0.03    diag
   5     -263.75612313      -0.00024552     0.58D-03     0.70D-03     4     0       0.01      0.04    diag
   6     -263.75616395      -0.00004081     0.18D-03     0.27D-03     5     0       0.00      0.04    diag
   7     -263.75617043      -0.00000648     0.58D-04     0.12D-03     6     0       0.01      0.05    diag
   8     -263.75617110      -0.00000067     0.19D-04     0.46D-04     7     0       0.00      0.05    fixocc
   9     -263.75617115      -0.00000004     0.51D-05     0.11D-04     8     0       0.01      0.06    diag
  10     -263.75617115      -0.00000001     0.18D-05     0.42D-05     9     0       0.00      0.06    diag/orth
  11     -263.75617115      -0.00000000     0.38D-06     0.88D-06     9     0       0.01      0.07    diag
  12     -263.75617115      -0.00000000     0.68D-07     0.10D-06     0     0       0.01      0.08    diag

 Final occupancy:   8   2   5   1

 !RHF STATE 1.1 Energy               -263.756171151745
  RHF One-electron energy            -604.958346203574
  RHF Two-electron energy             219.029139428940
  RHF Kinetic energy                  263.185331658999
  RHF Nuclear energy                  122.173035622889
  RHF Virial quotient                  -1.002168963936

 !RHF STATE 1.1 Dipole moment           0.00000000     0.00000000     0.11766397
 Dipole moment /Debye                   0.00000000     0.00000000     0.29907197

 Orbital energies:

           1.1          2.1          3.1          4.1          5.1          6.1          7.1          8.1          9.1         10.1
    -20.632420   -20.560979   -11.454777    -1.514781    -1.373271    -0.898444    -0.732273    -0.610640     0.132634     0.307020

           1.2          2.2          3.2          4.2
     -0.683694    -0.493349     0.203051     0.420051

           1.3          2.3          3.3          4.3          5.3          6.3          7.3
    -20.632444    -1.410991    -0.739930    -0.670585    -0.486079     0.156845     0.466157

           1.4          2.4          3.4
     -0.555379     0.764032     0.856564


 HOMO      5.3    -0.486079 =     -13.2269eV
 LUMO      9.1     0.132634 =       3.6092eV
 LUMO-HOMO         0.618713 =      16.8360eV

 Orbitals saved in record  2100.2


 **********************************************************************************************************************************
 DATASETS  * FILE   NREC   LENGTH (MB)   RECORD NAMES
              1      18       28.87       500      610      700      900      950      970     1000      129      960     1100   
                                          VAR    BASINP    GEOM    SYMINP    ZMAT    AOBASIS   BASIS     P2S    ABASIS      S 
                                         1400     1410     1200     1210     1080     1600     1650     1700   
                                           T        V       H0       H01     AOSYM     SMH    MOLCAS    OPER   

              2       4        0.52       700     1000      520     2100   
                                         GEOM     BASIS   MCVARS     RHF  

 PROGRAMS   *        TOTAL    HF-SCF       INT
 CPU TIMES  *         0.97      0.08      0.71
 REAL TIME  *         1.32 SEC
 DISK USED  *        29.89 MB (local),      618.25 MB (total)
 GA USED    *         0.00 MB       (max)       0.00 MB       (current)
 **********************************************************************************************************************************


 PROGRAM * CCSD (Closed-shell coupled cluster)     Authors: C. Hampel, H.-J. Werner, 1991, M. Deegan, P.J. Knowles, 1992


 Convergence thresholds:  THRVAR = 1.00D-12  THRDEN = 1.00D-08

 CCSD(T)     terms to be evaluated (factor= 1.000)


 Using ITF CCSD(T) gradient implementation

 Number of core orbitals:           4 (   3   0   1   0 )
 Number of closed-shell orbitals:  12 (   5   2   4   1 )
 Number of external orbitals:     132 (  48  26  39  19 )

 Molecular orbitals read from record     2100.2  Type=RHF/CANONICAL  

 Integral transformation finished. Total CPU:   0.19 sec, npass=  1  Memory used:   2.14 MW
 Time for re-packing tensors:             0.04 sec
  Reference energy                   -263.756171151744

  MP2 correlation energy               -0.863206848155
  MP2 total energy                   -264.619377999899

 ITER.      SQ.NORM     CORR.ENERGY   TOTAL ENERGY   ENERGY CHANGE        DEN1      VAR(S)    VAR(P)  DIIS     TIME
   1      1.20097264    -0.86475348  -264.62092464    -0.00154664     0.02215458  6.22e-03  3.99e-03  1  1     0.17
   2      1.21614815    -0.86400112  -264.62017227     0.00075236    -0.02058719  1.21e-04  6.91e-04  2  2     0.36
   3      1.21947672    -0.86401552  -264.62018667    -0.00001440    -0.00009322  3.19e-05  6.30e-05  3  3     0.55
   4      1.22223401    -0.86395350  -264.62012466     0.00006202    -0.00170627  6.28e-07  9.94e-06  4  4     0.75
   5      1.22317390    -0.86387791  -264.62004906     0.00007560    -0.00034967  3.22e-08  6.76e-07  5  5     0.94
   6      1.22338855    -0.86386284  -264.62003399     0.00001507    -0.00006631  2.89e-09  3.23e-08  6  0     1.15
   7      1.22341002    -0.86386105  -264.62003220     0.00000179    -0.00000645  1.46e-10  2.54e-09  6  1     1.36
   8      1.22341033    -0.86386111  -264.62003227    -0.00000006     0.00000021  2.22e-11  1.76e-10  6  2     1.57
   9      1.22341046    -0.86386114  -264.62003229    -0.00000002    -0.00000000  6.86e-13  1.73e-11  6  3     1.76
  10      1.22341035    -0.86386114  -264.62003229    -0.00000000     0.00000002  1.06e-13  1.10e-12  6  4     1.96
  11      1.22341037    -0.86386114  -264.62003229     0.00000000     0.00000001  6.85e-15  1.08e-13           2.15

 Norm of t1 vector:      0.10219157     S-energy:     -0.00000003   T1 diagnostic:  0.01475008

 Time per iteration:                      0.20 sec

 RESULTS
 =======

  Reference energy                   -263.756171151744
  CCSD correlation energy              -0.863861140437
  CCSD total energy                  -264.620032292181

  Triples (T) contribution             -0.035466302200
  Total correlation energy             -0.899327442637
  CCSD[T] total energy               -264.657456711720
 !CCSD(T) total energy               -264.655498594381

 Starting CP-CCSD(T) iterations.   Author: W. Gyorffy (2015)

 ITER.      NRM1           NRM2      VAR(S)+VAR(P)   DIIS    TIME
   1     0.00458256     0.92680747     2.04e-02      1  1    0.24
   2     0.00645866     0.89318386     1.22e-03      2  2    0.47
   3     0.00619590     0.90156164     3.29e-05      3  3    0.71
   4     0.00637941     0.90141132     5.18e-06      4  4    0.96
   5     0.00648390     0.90170715     7.58e-07      5  5    1.20
   6     0.00654421     0.90181144     8.83e-08      6  0    1.47
   7     0.00656743     0.90186332     1.05e-08      6  1    1.72
   8     0.00657352     0.90188612     1.80e-09      6  2    2.00
   9     0.00657607     0.90189843     2.34e-10      6  3    2.24
  10     0.00657638     0.90190091     4.57e-11      6  4    2.49
  11     0.00657631     0.90190169     6.67e-12      6  5    2.75
  12     0.00657631     0.90190170     6.45e-13              2.98


 Time per iteration:                      0.25 sec

 CPHF start vector      0.2 not found

 Starting Coupled-perturbed Hartree-Fock, convergence threshold= 1.0D-06

 ITER   MIC  DIIS      VAR         VARC       CPU
   1     0     1    0.77D-02    0.22D-02     0.00
   2     4     2    0.31D-03    0.98D-04     0.01
   3     5     3    0.81D-05    0.15D-05     0.01
   4     3     4    0.60D-06    0.85D-07     0.02

 CPHF convergence reached in  4 macroiterations and   12 microiterations.   Accuracy: 6.0415D-07

 CPHF solution written to record  8500.2

 Dipole moments (unrelaxed):            0.00000000     0.00000000     0.06012546
 Orbital relaxation contribution:      -0.00000000    -0.00000000     0.00475909
 !CCSD(T) STATE 1.1 Dipole moment       0.00000000     0.00000000     0.06488455
 Dipole moment /Debye                   0.00000000     0.00000000     0.16492007

 CPU-time for coupled-perturbed hartree-fock:          0.02 sec

 Number of N-1 electron functions:              12
 Number of N-2 electron functions:              78
 Number of singly external CSFs:               467
 Number of doubly external CSFs:            322490
 Total number of CSFs:                      322958

 CCSD(T) gradient info saved on record        55555.1




 **********************************************************************************************************************************
 DATASETS  * FILE   NREC   LENGTH (MB)   RECORD NAMES
              1      21      122.65       500      610      700      900      950      970     1000      129      960     1100   
                                          VAR    BASINP    GEOM    SYMINP    ZMAT    AOBASIS   BASIS     P2S    ABASIS      S 
                                         1400     1410     1200     1210     1080     1600     1650     1700     1380     3791   
                                           T        V       H0       H01     AOSYM     SMH    MOLCAS    OPER     JKOP   
                                        55555   
                                        CCSD(T)    

              2       5        0.80       700     1000      520     2100     8500   
                                         GEOM     BASIS   MCVARS     RHF     CPHF   

 PROGRAMS   *        TOTAL   CCSD(T)    HF-SCF       INT
 CPU TIMES  *        20.30     19.33      0.08      0.71
 REAL TIME  *        23.11 SEC
 DISK USED  *       123.56 MB (local),        1.70 GB (total)
 SF USED    *       691.69 MB
 GA USED    *         0.00 MB       (max)       0.00 MB       (current)
 **********************************************************************************************************************************


 PROGRAM * OPT (Geometry optimization)     Authors: F. Eckert and H.-J. Werner


 BFGS update of hessian

 *** Long output written to logfile /home/koe/bachelorthesis/calc/MAIN/H2CO3/opt_calc_ccsd/h2co3.log ***


 Geometry optimization using default procedure for command CCSD(T)

 Geometry written to block  1 of record 700

 Making model hessian for Z-matrix coordinates

 Entering Rational Function Geometry Optimization

 ITER.   ENERGY(OLD)    ENERGY(NEW)      DE          GRADMAX     GRADNORM    GRADRMS     STEPMAX     STEPLEN     STEPRMS   CPU-time
   1  -264.65549859  -264.65611082    -0.00061223  0.02538634  0.03644285  0.01629774  0.02065463  0.02756852  0.00551370     23.93
   2  -264.65611082  -264.65615830    -0.00004748  0.00839126  0.01006602  0.00450166  0.00697484  0.00915441  0.00183088     48.30
   3  -264.65615830  -264.65616094    -0.00000264  0.00140851  0.00210209  0.00094008  0.00122991  0.00182309  0.00036462     72.61
   4  -264.65616094  -264.65616153    -0.00000059  0.00070050  0.00090624  0.00040528  0.00098225  0.00132872  0.00026574     97.35
   5  -264.65616153  -264.65616153    -0.00000000  0.00004192  0.00004502  0.00002014  0.00003111  0.00003748  0.00000750    121.86
   6  -264.65616153  -264.65616153    -0.00000000  0.00001020  0.00001404  0.00000628  0.00001611  0.00002044  0.00000409    147.52
   7  -264.65616153  -264.65616153     0.00000000  0.00000237  0.00000288  0.00000129  0.00000299  0.00000323  0.00000065    172.76
   8  -264.65616153  -264.65616153    -0.00000000  0.00000136  0.00000215  0.00000096  0.00000672  0.00000729  0.00000146    197.94
   9  -264.65616153  -264.65616153     0.00000000  0.00000170  0.00000232  0.00000104  0.00000389  0.00000414  0.00000083    223.08
  10  -264.65616153  -264.65616153    -0.00000000  0.00000034  0.00000054  0.00000024  0.00000073  0.00000078  0.00000016    248.11
  11  -264.65616153  -264.65616153     0.00000000  0.00000008  0.00000010  0.00000005  0.00000009  0.00000011  0.00000002    273.22
  12  -264.65616153  -264.65616153    -0.00000000  0.00000005  0.00000006  0.00000003  0.00000003  0.00000005  0.00000001    298.32
  13  -264.65616153  -264.65616153    -0.00000000  0.00000002  0.00000003  0.00000001  0.00000002  0.00000003  0.00000001    323.08

 END OF GEOMETRY OPTIMIZATION.

 Optimized variables
 B1=                  1.20509908 ANG
 B2=                  1.33996534 ANG
 A1=                125.72123267 DEGREE
 B3=                  0.96473977 ANG
 A2=                105.32928406 DEGREE

 **********************************************************************************************************************************

 Geometry written to block  1 of record 700

 Recomputing wavefunction for reoriented structure

 Current geometry (xyz format, in Angstrom)

    6
 CCSD(T)/VTZ  ENERGY=-264.65616153
 O          0.0000000000        0.0000000000       -1.3035752049
 C          0.0000000000        0.0000000000       -0.0984761265
 O          0.0000000000        1.0878739428        0.6838520720
 H          0.0000000000        1.8381525669        0.0773829327
 O          0.0000000000       -1.0878739428        0.6838520720
 H          0.0000000000       -1.8381525669        0.0773829327

 **********************************************************************************************************************************


 **********************************************************************************************************************************
 DATASETS  * FILE   NREC   LENGTH (MB)   RECORD NAMES
              1      21      122.65       500      610      700      900      950      970     1000      129      960     1100   
                                          VAR    BASINP    GEOM    SYMINP    ZMAT    AOBASIS   BASIS     P2S    ABASIS      S 
                                         1400     1410     1200     1210     1080     1600     1650     1700     1380     3791   
                                           T        V       H0       H01     AOSYM     SMH    MOLCAS    OPER     JKOP   
                                        55555   
                                        CCSD(T)    

              2       6        0.95       700     1000      520     2100     8500     9001   
                                         GEOM     BASIS   MCVARS     RHF     CPHF    DEN_MP2    

 PROGRAMS   *        TOTAL      OPTG   CCSD(T)    HF-SCF       INT
 CPU TIMES  *       362.40    342.09     19.33      0.08      0.71
 REAL TIME  *       430.95 SEC
 DISK USED  *       191.16 MB (local),        2.54 GB (total)
 SF USED    *       929.38 MB
 GA USED    *         0.00 MB       (max)       0.00 MB       (current)
 **********************************************************************************************************************************


 PROGRAM * HESSIAN

 Computing numerical hessian using default procedure for command CCSD(T)

 Symmetry elements for unique displacements: X  Y  

 Using AUTO symmetry option

 Running default procedure: HF-SCF000  CCSD(T)


 Numerically approximating hessian using central gradient differences

 Task list generated. Total number of displacements:     18

 All  18 tasks completed.  CPU=   2983.65 sec, Elapsed=   2983.68 sec.

 CCSD(T) hessian saved to record  5300.2

 PROGRAM * FREQUENCIES (Calculation of harmonic vibrational spectra for CCSD(T))


 Permanent Dipole Moment [debye]
   1-  3    0.000000    0.000000    0.156625

 Dipole Moment Norm    0.1566254 [debye]

 Dipole Moment Derivatives [debye/ang]
              1             2             3             4             5             6             7             8
    1    -1.8312087     0.0000000     0.0000000     1.9501976     0.0000000     0.0000000    -1.6650359     0.0000000
    2     0.0000000    -3.3013596     0.0000000     0.0000000     9.6121801     0.0000000     0.0000000    -4.9532520
    3     0.0000000     0.0000000    -5.5490700     0.0000000     0.0000000     9.3082114     0.0000000    -2.1099723
              9            10            11            12            13            14            15            16
    1     0.0000000     1.6302880     0.0000000     0.0000000    -1.6650359     0.0000000     0.0000000     1.6302880
    2    -1.8239047     0.0000000     1.8226453     0.1710428     0.0000000    -4.9532520     1.8239047     0.0000000
    3    -2.8812750     0.0000000     0.2421402     0.9499474     0.0000000     2.1099723    -2.8812750     0.0000000
             17            18
    1     0.0000000     0.0000000
    2     1.8226453    -0.1710428
    3    -0.2421402     0.9499474

 Projecting out rotations and translations

 Force Constants (Second Derivatives of the Energy) in [a.u.]
                             O1X1        O1Y1        O1Z1        CX2         CY2     
           O1X1          0.0386323
           O1Y1          0.0000000   0.1088247
           O1Z1          0.0000000  -0.0000000   0.8549683
           CX2          -0.0913350   0.0000000   0.0000000   0.2321740
           CY2           0.0000000  -0.1251955  -0.0000000   0.0000000   0.7092658
           CZ2           0.0000000   0.0000000  -0.7238415   0.0000000   0.0000000
           O2X3          0.0307415   0.0000000   0.0000000  -0.0703250   0.0000000
           O2Y3          0.0000000  -0.0007565  -0.0406901   0.0000000  -0.2436777
           O2Z3          0.0000000  -0.0618111  -0.0596289   0.0000000  -0.0712309
           H1X4         -0.0043902   0.0000000   0.0000000  -0.0000945   0.0000000
           H1Y4          0.0000000   0.0089419   0.0039555   0.0000000  -0.0483575
           H1Z4          0.0000000   0.0014423  -0.0059345   0.0000000  -0.0251411
           O3X5          0.0307415   0.0000000   0.0000000  -0.0703250   0.0000000
           O3Y5          0.0000000  -0.0007565   0.0406901   0.0000000  -0.2436777
           O3Z5          0.0000000   0.0618111  -0.0596289   0.0000000   0.0712309
           H2X6         -0.0043902   0.0000000   0.0000000  -0.0000945   0.0000000
           H2Y6          0.0000000   0.0089419  -0.0039555   0.0000000  -0.0483575
           H2Z6          0.0000000  -0.0014423  -0.0059345   0.0000000   0.0251411
                             CZ2         O2X3        O2Y3        O2Z3        H1X4    
           CZ2           1.0592867
           O2X3          0.0000000   0.0390645
           O2Y3         -0.1080286   0.0000000   0.6440044
           O2Z3         -0.1888549   0.0000000  -0.0931577   0.4699481
           H1X4          0.0000000  -0.0134519   0.0000000   0.0000000   0.0122493
           H1Y4          0.0307117   0.0000000  -0.3142476   0.1975301   0.0000000
           H1Z4          0.0211323   0.0000000   0.2575646  -0.2389843   0.0000000
           O3X5          0.0000000   0.0105431   0.0000000   0.0000000   0.0034279
           O3Y5          0.1080286   0.0000000  -0.0822528   0.0217970   0.0000000
           O3Z5         -0.1888549   0.0000000  -0.0217970   0.0198021   0.0000000
           H2X6          0.0000000   0.0034279   0.0000000   0.0000000   0.0022593
           H2Y6         -0.0307117   0.0000000  -0.0030699   0.0068727   0.0000000
           H2Z6          0.0211323   0.0000000   0.0061088  -0.0022821   0.0000000
                             H1Y4        H1Z4        O3X5        O3Y5        O3Z5    
           H1Y4          0.3583629
           H1Z4         -0.2265409   0.2252209
           O3X5          0.0000000   0.0000000   0.0390645
           O3Y5         -0.0030699  -0.0061088   0.0000000   0.6440044
           O3Z5         -0.0068727  -0.0022821   0.0000000   0.0931577   0.4699481
           H2X6          0.0000000   0.0000000  -0.0134519   0.0000000   0.0000000
           H2Y6         -0.0016298  -0.0012161   0.0000000  -0.3142476  -0.1975301
           H2Z6          0.0012161   0.0008478   0.0000000  -0.2575646  -0.2389843
                             H2X6        H2Y6        H2Z6    
           H2X6          0.0122493
           H2Y6          0.0000000   0.3583629
           H2Z6          0.0000000   0.2265409   0.2252209


 Atomic Masses
   1-  6   15.994910   12.000000   15.994910    1.007825   15.994910    1.007825

 Mass weighted Second Derivative Matrix
                             O1X1        O1Y1        O1Z1        CX2         CY2     
           O1X1          0.0024153
           O1Y1          0.0000000   0.0068037
           O1Z1          0.0000000  -0.0000000   0.0534525
           CX2          -0.0065926   0.0000000   0.0000000   0.0193478
           CY2           0.0000000  -0.0090366  -0.0000000   0.0000000   0.0591055
           CZ2           0.0000000   0.0000000  -0.0522471   0.0000000   0.0000000
           O2X3          0.0019220   0.0000000   0.0000000  -0.0050761   0.0000000
           O2Y3          0.0000000  -0.0000473  -0.0025439   0.0000000  -0.0175887
           O2Z3          0.0000000  -0.0038644  -0.0037280   0.0000000  -0.0051415
           H1X4         -0.0010934   0.0000000   0.0000000  -0.0000272   0.0000000
           H1Y4          0.0000000   0.0022271   0.0009852   0.0000000  -0.0139053
           H1Z4          0.0000000   0.0003592  -0.0014781   0.0000000  -0.0072294
           O3X5          0.0019220   0.0000000   0.0000000  -0.0050761   0.0000000
           O3Y5          0.0000000  -0.0000473   0.0025439   0.0000000  -0.0175887
           O3Z5          0.0000000   0.0038644  -0.0037280   0.0000000   0.0051415
           H2X6         -0.0010934   0.0000000   0.0000000  -0.0000272   0.0000000
           H2Y6          0.0000000   0.0022271  -0.0009852   0.0000000  -0.0139053
           H2Z6          0.0000000  -0.0003592  -0.0014781   0.0000000   0.0072294
                             CZ2         O2X3        O2Y3        O2Z3        H1X4    
           CZ2           0.0882739
           O2X3          0.0000000   0.0024423
           O2Y3         -0.0077975   0.0000000   0.0402631
           O2Z3         -0.0136316   0.0000000  -0.0058242   0.0293811
           H1X4          0.0000000  -0.0033504   0.0000000   0.0000000   0.0121542
           H1Y4          0.0088312   0.0000000  -0.0782688   0.0491983   0.0000000
           H1Z4          0.0060766   0.0000000   0.0641509  -0.0595232   0.0000000
           O3X5          0.0000000   0.0006592   0.0000000   0.0000000   0.0008538
           O3Y5          0.0077975   0.0000000  -0.0051424   0.0013627   0.0000000
           O3Z5         -0.0136316   0.0000000  -0.0013627   0.0012380   0.0000000
           H2X6          0.0000000   0.0008538   0.0000000   0.0000000   0.0022418
           H2Y6         -0.0088312   0.0000000  -0.0007646   0.0017118   0.0000000
           H2Z6          0.0060766   0.0000000   0.0015215  -0.0005684   0.0000000
                             H1Y4        H1Z4        O3X5        O3Y5        O3Z5    
           H1Y4          0.3555805
           H1Z4         -0.2247819   0.2234722
           O3X5          0.0000000   0.0000000   0.0024423
           O3Y5         -0.0007646  -0.0015215   0.0000000   0.0402631
           O3Z5         -0.0017118  -0.0005684   0.0000000   0.0058242   0.0293811
           H2X6          0.0000000   0.0000000  -0.0033504   0.0000000   0.0000000
           H2Y6         -0.0016172  -0.0012067   0.0000000  -0.0782688  -0.0491983
           H2Z6          0.0012067   0.0008412   0.0000000  -0.0641509  -0.0595232
                             H2X6        H2Y6        H2Z6    
           H2X6          0.0121542
           H2Y6          0.0000000   0.3555805
           H2Z6          0.0000000   0.2247819   0.2234722


 Mass Weighted 2nd Derivative Matrix Eigenvalues
   1- 10    0.000000    0.000000    0.000000    0.000000    0.000000    0.000000    0.011343    0.011696    0.013844    0.014713
  11- 18    0.024547    0.036660    0.052892    0.065210    0.084491    0.130958    0.554540    0.555092

 Mass Weighted 2nd Derivative Matrix Eigenvectors
              1             2             3             4             5             6             7             8
    1    -0.0517958    -0.0413533    -0.0019795     0.9449790     0.0280188    -0.0533543     0.0000000     0.0000000
    2     0.6479255     0.3116960     0.0618457     0.0356912     0.0495535    -0.2147167     0.0000000     0.0000000
    3    -0.1188484     0.0296104     0.2256399    -0.0259014     0.4067481    -0.1610927     0.3906447     0.0000000
    4    -0.0615189     0.1760871     0.2062608     0.2968623    -0.0611084     0.1646333     0.0000000     0.0000000
    5     0.1512603     0.2817114    -0.0003600     0.0069078    -0.0907094    -0.2904630     0.0000000     0.0000000
    6    -0.1029421     0.0256474     0.1954409    -0.0224348     0.3523102    -0.1395326     0.3203018     0.0000000
    7    -0.1608358     0.7071404    -0.0306690    -0.0344584     0.1374850     0.5583612     0.0000000    -0.2761015
    8    -0.1326205     0.3340334    -0.0408345    -0.0100175    -0.2048806    -0.4136537     0.4751444     0.0000000
    9     0.3084053     0.0173834     0.2818447    -0.0008815     0.5460197    -0.0521990    -0.2656297     0.0000000
   10    -0.0513303     0.2063288    -0.1115500     0.0698139     0.0940555     0.1458073     0.0000000     0.6509746
   11     0.0264986     0.0821368    -0.0023850     0.0009867    -0.0319391    -0.0885955    -0.0425179     0.0000000
   12     0.1513806     0.0022468     0.0804777     0.0041102     0.1611704     0.0057488    -0.2725301     0.0000000
   13    -0.0061795     0.0170936     0.8186834    -0.0620113    -0.4065652     0.1378383     0.0000000     0.2761015
   14    -0.1326205     0.3340334    -0.0408345    -0.0100175    -0.2048806    -0.4136537    -0.4751444     0.0000000
   15    -0.5461022     0.0418374     0.1694350    -0.0509213     0.2674765    -0.2699865    -0.2656297     0.0000000
   16     0.0142649    -0.0863446     0.2486905     0.0581277    -0.1366955    -0.0325514     0.0000000    -0.6509746
   17     0.0264986     0.0821368    -0.0023850     0.0009867    -0.0319391    -0.0885955     0.0425179     0.0000000
   18    -0.2110464     0.0126186     0.0328008    -0.0171135     0.0430303    -0.0866226    -0.2725301     0.0000000
              9            10            11            12            13            14            15            16
    1     0.0000000    -0.0384963    -0.3122567     0.0000000     0.0000000     0.0000000     0.0000000     0.0000000
    2     0.6457772     0.0000000     0.0000000     0.0000000     0.0229144     0.0000000    -0.1087200     0.0000000
    3     0.0000000     0.0000000     0.0000000    -0.4304919     0.0000000     0.3487590     0.0000000    -0.5314568
    4     0.0000000    -0.1968244     0.8746198     0.0000000     0.0000000     0.0000000     0.0000000     0.0000000
    5    -0.2597452     0.0000000     0.0000000     0.0000000     0.3651190     0.0000000     0.7773087     0.0000000
    6     0.0000000     0.0000000     0.0000000    -0.2280971     0.0000000    -0.0536027     0.0000000     0.8055362
    7     0.0000000    -0.0685465    -0.2456753     0.0000000     0.0000000     0.0000000     0.0000000     0.0000000
    8    -0.1727875     0.0000000     0.0000000     0.5027022    -0.2469397     0.0233073    -0.2173428    -0.0436037
    9    -0.3902007     0.0000000     0.0000000     0.2808793    -0.3460355    -0.2655566     0.0116421    -0.1109335
   10     0.0000000     0.6893406     0.0917148     0.0000000     0.0000000     0.0000000     0.0000000     0.0000000
   11    -0.1498320     0.0000000     0.0000000     0.1796647     0.3081722     0.3987591    -0.2586896     0.0886586
   12    -0.2306305     0.0000000     0.0000000     0.1320686     0.3967262     0.4557133    -0.2787325     0.1107459
   13     0.0000000    -0.0685465    -0.2456753     0.0000000     0.0000000     0.0000000     0.0000000     0.0000000
   14    -0.1727875     0.0000000     0.0000000    -0.5027022    -0.2469397    -0.0233073    -0.2173428     0.0436037
   15     0.3902007     0.0000000     0.0000000     0.2808793     0.3460355    -0.2655566    -0.0116421    -0.1109335
   16     0.0000000     0.6893406     0.0917148     0.0000000     0.0000000     0.0000000     0.0000000     0.0000000
   17    -0.1498320     0.0000000     0.0000000    -0.1796647     0.3081722    -0.3987591    -0.2586896    -0.0886586
   18     0.2306305     0.0000000     0.0000000     0.1320686    -0.3967262     0.4557133     0.2787325     0.1107459
             17            18
    1     0.0000000     0.0000000
    2     0.0026923     0.0000000
    3     0.0000000     0.0036590
    4     0.0000000     0.0000000
    5    -0.0112253     0.0000000
    6     0.0000000     0.0083321
    7     0.0000000     0.0000000
    8    -0.1338195    -0.1381440
    9     0.1006614     0.0986931
   10     0.0000000     0.0000000
   11     0.5471155     0.5468488
   12    -0.4154005    -0.4148383
   13     0.0000000     0.0000000
   14    -0.1338195     0.1381440
   15    -0.1006614     0.0986931
   16     0.0000000     0.0000000
   17     0.5471155    -0.5468488
   18     0.4154005    -0.4148383

   Low Vibration      Wavenumber
        Nr             [1/cm] 
        1                0.00
        2                0.00
        3                0.00
        4                0.00
        5                0.00
        6                0.00

     Vibration        Wavenumber
        Nr             [1/cm] 
        1              547.48
        2              555.92
        3              604.83
        4              623.53
        5              805.39
        6              984.24
        7             1182.22
        8             1312.69
        9             1494.21
       10             1860.24
       11             3827.99
       12             3829.89

 FREQUENCIES * CALCULATION OF NORMAL MODES FOR CCSD(T)


 Atomic Coordinates

  Nr  Atom  Charge       X              Y              Z

   1   O1    8.00    0.000000000    0.000000000   -2.463400120
   2   C     6.00    0.000000000    0.000000000   -0.186092909
   3   O2    8.00    0.000000000    2.055783810    1.292293126
   4   H1    1.00    0.000000000    3.473604927    0.146232549
   5   O3    8.00    0.000000000   -2.055783810    1.292293126
   6   H2    1.00    0.000000000   -3.473604927    0.146232549

 Gradient norm at reference geometry: 0.21989D-07

 Normal Modes

                              1 A1        2 A2        3 B2        4 B1        5 B1 
 Wavenumbers [cm-1]          547.48      555.92      604.83      623.53      805.39
 Intensities [km/mol]          4.78        0.00       50.44      205.04       54.70
 Intensities [relative]        1.00        0.00       10.57       42.98       11.47
           O1X1            -0.00000     0.00000    -0.00000    -0.00963    -0.07808
           O1Y1             0.00000     0.00000     0.16147     0.00000    -0.00000
           O1Z1             0.09768     0.00000    -0.00000     0.00000    -0.00000
           CX2             -0.00000     0.00000     0.00000    -0.05682     0.25248
           CY2             -0.00000    -0.00000    -0.07498    -0.00000     0.00000
           CZ2              0.09246     0.00000    -0.00000    -0.00000     0.00000
           O2X3             0.00000    -0.06904     0.00000    -0.01714    -0.06143
           O2Y3             0.11880     0.00000    -0.04320    -0.00000    -0.00000
           O2Z3            -0.06642    -0.00000    -0.09757    -0.00000    -0.00000
           H1X4            -0.00000     0.64844    -0.00000     0.68666     0.09136
           H1Y4            -0.04235    -0.00000    -0.14925    -0.00000     0.00000
           H1Z4            -0.27147    -0.00000    -0.22973     0.00000    -0.00000
           O3X5            -0.00000     0.06904    -0.00000    -0.01714    -0.06143
           O3Y5            -0.11880    -0.00000    -0.04320     0.00000    -0.00000
           O3Z5            -0.06642    -0.00000     0.09757     0.00000     0.00000
           H2X6             0.00000    -0.64844     0.00000     0.68666     0.09136
           H2Y6             0.04235    -0.00000    -0.14925     0.00000    -0.00000
           H2Z6            -0.27147    -0.00000     0.22973     0.00000    -0.00000

                              6 A1        7 B2        8 A1        9 B2       10 A1 
 Wavenumbers [cm-1]          984.24     1182.22     1312.69     1494.21     1860.24
 Intensities [km/mol]         15.94      426.16       26.03      127.94      477.09
 Intensities [relative]        3.34       89.32        5.46       26.82      100.00
           O1X1            -0.00000    -0.00000     0.00000     0.00000    -0.00000
           O1Y1             0.00000     0.00573     0.00000    -0.02718     0.00000
           O1Z1            -0.10764     0.00000     0.08720    -0.00000    -0.13289
           CX2              0.00000     0.00000     0.00000     0.00000    -0.00000
           CY2             -0.00000     0.10540    -0.00000     0.22439    -0.00000
           CZ2             -0.06585    -0.00000    -0.01547     0.00000     0.23254
           O2X3             0.00000     0.00000     0.00000     0.00000    -0.00000
           O2Y3             0.12570    -0.06174     0.00583    -0.05434    -0.01090
           O2Z3             0.07023    -0.08652    -0.06640     0.00291    -0.02774
           H1X4            -0.00000    -0.00000     0.00000     0.00000    -0.00000
           H1Y4             0.17897     0.30697     0.39721    -0.25768     0.08831
           H1Z4             0.13155     0.39518     0.45394    -0.27765     0.11032
           O3X5            -0.00000    -0.00000     0.00000     0.00000    -0.00000
           O3Y5            -0.12570    -0.06174    -0.00583    -0.05434     0.01090
           O3Z5             0.07023     0.08652    -0.06640    -0.00291    -0.02774
           H2X6             0.00000     0.00000    -0.00000     0.00000     0.00000
           H2Y6            -0.17897     0.30697    -0.39721    -0.25768    -0.08831
           H2Z6             0.13155    -0.39518     0.45394     0.27765     0.11032

                             11 B2       12 A1 
 Wavenumbers [cm-1]         3827.99     3829.89
 Intensities [km/mol]        177.82       10.58
 Intensities [relative]       37.27        2.22
           O1X1            -0.00000     0.00000
           O1Y1             0.00067     0.00000
           O1Z1            -0.00000     0.00091
           CX2              0.00000    -0.00000
           CY2             -0.00324    -0.00000
           CZ2             -0.00000     0.00241
           O2X3            -0.00000     0.00000
           O2Y3            -0.03346    -0.03454
           O2Z3             0.02517     0.02468
           H1X4             0.00000     0.00000
           H1Y4             0.54499     0.54472
           H1Z4            -0.41378    -0.41322
           O3X5             0.00000     0.00000
           O3Y5            -0.03346     0.03454
           O3Z5            -0.02517     0.02468
           H2X6             0.00000    -0.00000
           H2Y6             0.54499    -0.54472
           H2Z6             0.41378    -0.41322


 Normal Modes of low/zero frequencies

                                  1           2           3           4           5
 Wavenumbers [cm-1]            0.00        0.00        0.00        0.00        0.00
 Intensities [km/mol]          0.00        0.00        0.00        0.00        0.00
 Intensities [relative]        0.00        0.00        0.00        0.00        0.00
           O1X1            -0.01295    -0.01034    -0.00049     0.23628     0.00701
           O1Y1             0.16201     0.07794     0.01546     0.00892     0.01239
           O1Z1            -0.02972     0.00740     0.05642    -0.00648     0.10170
           CX2             -0.01776     0.05083     0.05954     0.08570    -0.01764
           CY2              0.04367     0.08132    -0.00010     0.00199    -0.02619
           CZ2             -0.02972     0.00740     0.05642    -0.00648     0.10170
           O2X3            -0.04022     0.17681    -0.00767    -0.00862     0.03438
           O2Y3            -0.03316     0.08352    -0.01021    -0.00250    -0.05123
           O2Z3             0.07711     0.00435     0.07047    -0.00022     0.13653
           H1X4            -0.05113     0.20553    -0.11112     0.06954     0.09369
           H1Y4             0.02640     0.08182    -0.00238     0.00098    -0.03181
           H1Z4             0.15079     0.00224     0.08016     0.00409     0.16054
           O3X5            -0.00155     0.00427     0.20470    -0.01551    -0.10166
           O3Y5            -0.03316     0.08352    -0.01021    -0.00250    -0.05123
           O3Z5            -0.13655     0.01046     0.04237    -0.01273     0.06688
           H2X6             0.01421    -0.08601     0.24772     0.05790    -0.13616
           H2Y6             0.02640     0.08182    -0.00238     0.00098    -0.03181
           H2Z6            -0.21023     0.01257     0.03267    -0.01705     0.04286

                                  6
 Wavenumbers [cm-1]            0.00
 Intensities [km/mol]          0.00
 Intensities [relative]        0.00
           O1X1            -0.01334
           O1Y1            -0.05369
           O1Z1            -0.04028
           CX2              0.04753
           CY2             -0.08385
           CZ2             -0.04028
           O2X3             0.13961
           O2Y3            -0.10343
           O2Z3            -0.01305
           H1X4             0.14524
           H1Y4            -0.08825
           H1Z4             0.00573
           O3X5             0.03447
           O3Y5            -0.10343
           O3Z5            -0.06751
           H2X6            -0.03242
           H2Y6            -0.08825
           H2Z6            -0.08629


 Frequencies dumped to record   5400.2

 Zero point energy:  0.04016097 [H]     8814.31 [1/CM]      105.44 [KJ/MOL]
 Frequency information read from record  5400.2

 Recomputing wavefunction at initial geometry


 **********************************************************************************************************************************
 DATASETS  * FILE   NREC   LENGTH (MB)   RECORD NAMES
              1      21      122.65       500      610      700      900      950      970     1000      129      960     1100   
                                          VAR    BASINP    GEOM    SYMINP    ZMAT    AOBASIS   BASIS     P2S    ABASIS      S 
                                         1400     1410     1200     1210     1080     1600     1650     1700     1380     3791   
                                           T        V       H0       H01     AOSYM     SMH    MOLCAS    OPER     JKOP   
                                        55555   
                                        CCSD(T)    

              2       9        0.98       700     1000      520     2100     8500     9001     5300     5450     5400   
                                         GEOM     BASIS   MCVARS     RHF     CPHF    DEN_MP2   HESS     NMOD     FREQ   

 PROGRAMS   *        TOTAL      FREQ      OPTG   CCSD(T)    HF-SCF       INT
 CPU TIMES  *      2873.67   2511.26    342.09     19.33      0.08      0.71
 REAL TIME  *      3436.75 SEC
 DISK USED  *         2.26 GB (local),       29.07 GB (total)
 SF USED    *       929.38 MB
 GA USED    *         0.00 MB       (max)       0.00 MB       (current)
 **********************************************************************************************************************************

 Dump information in style MOLDEN to h2co3_molden.dat                                                                

 Molecular orbitals read from record     2100.2  Type=RHF/CANONICAL (state 1.1)
 Occupation numbers read from record     2100.2  Type=RHF/RHF (state 1.1)
 Orbital energies read from record       2100.2  Type=RHF/CANONICAL (state 1.1)
 Redundancy group numbers read from rec  2100.2  Type=RHF/RHF (state 1.1)

 DUMP ORBITAL  1.3 AS ORBITAL    1  occ=    2.0000  eig=  -20.6305  GROUP=   2
 DUMP ORBITAL  1.1 AS ORBITAL    2  occ=    2.0000  eig=  -20.6304  GROUP=   2
 DUMP ORBITAL  2.1 AS ORBITAL    3  occ=    2.0000  eig=  -20.5577  GROUP=   2
 DUMP ORBITAL  3.1 AS ORBITAL    4  occ=    2.0000  eig=  -11.4490  GROUP=   2
 DUMP ORBITAL  4.1 AS ORBITAL    5  occ=    2.0000  eig=   -1.5233  GROUP=   2
 DUMP ORBITAL  2.3 AS ORBITAL    6  occ=    2.0000  eig=   -1.4163  GROUP=   2
 DUMP ORBITAL  5.1 AS ORBITAL    7  occ=    2.0000  eig=   -1.3784  GROUP=   2
 DUMP ORBITAL  6.1 AS ORBITAL    8  occ=    2.0000  eig=   -0.9021  GROUP=   2
 DUMP ORBITAL  3.3 AS ORBITAL    9  occ=    2.0000  eig=   -0.7447  GROUP=   2
 DUMP ORBITAL  7.1 AS ORBITAL   10  occ=    2.0000  eig=   -0.7336  GROUP=   2
 DUMP ORBITAL  1.2 AS ORBITAL   11  occ=    2.0000  eig=   -0.6892  GROUP=   2
 DUMP ORBITAL  4.3 AS ORBITAL   12  occ=    2.0000  eig=   -0.6730  GROUP=   2
 DUMP ORBITAL  8.1 AS ORBITAL   13  occ=    2.0000  eig=   -0.6126  GROUP=   2
 DUMP ORBITAL  1.4 AS ORBITAL   14  occ=    2.0000  eig=   -0.5561  GROUP=   2
 DUMP ORBITAL  2.2 AS ORBITAL   15  occ=    2.0000  eig=   -0.4943  GROUP=   2
 DUMP ORBITAL  5.3 AS ORBITAL   16  occ=    2.0000  eig=   -0.4862  GROUP=   2

 Total charge:      32.000000
 Frequency information read from record  5400.2

 **********************************************************************************************************************************

 CCSD(T)/cc-pVTZ energy=   -264.656161533150

   OPTG(CCSD(T))         CCSD(T)          HF-SCF
   -264.65616153   -264.65549859   -263.75617115
 **********************************************************************************************************************************
 Molpro calculation terminated
