
 Working directory              : /tmp/koe/molpro.YM6S5FBHab/
 Global scratch directory       : /tmp/koe/molpro.YM6S5FBHab/
 Wavefunction directory         : /home/koe/wfu/
 Main file repository           : /tmp/koe/molpro.YM6S5FBHab/

 id        : liedlgroup

 Nodes     nprocs
 zh2-c724     1
 GA implementation: MPI file
 GA implementation (serial work in mppx): MPI file

 Using customized tuning parameters: mindgm=1; mindgv=20; mindgc=4; mindgr=1; noblas=0; minvec=7
 default implementation of scratch files=df  


 Variables initialized (1015), CPU time= 0.00 sec
 ***,water
 memory,100,m
 angstrom
 
 orient, mass
 geometry = {
 H1
 O, H1, roh
 H2, O, roh, H1, hoh
 }
 
 roh = 0.9584 ANG
 hoh = 104.45 DEGREE
 
 
 mass, iso
 basis = vtz
 
 hf
 ccsd(t)
 
 optg
 {frequencies,symm=auto,print=0}
 
 
 
 put, molden, h2o.molden
 
 Commands initialized (818), CPU time= 0.00 sec, 672 directives.
 Default parameters read. Elapsed time= 0.07 sec

 Checking input...
 Passed
1


                                         ***  PROGRAM SYSTEM MOLPRO  ***
                                       Copyright, TTI GmbH Stuttgart, 2015
                                    Version 2022.1 linked Mar  4 2022 00:40:14


 **********************************************************************************************************************************
 LABEL *   water                                                                         
  (6 PROC) 64 bit serial version                                                         DATE: 14-Apr-22          TIME: 11:20:32  
 **********************************************************************************************************************************

 SHA1:             31073afc4d8441e10870424e0d77336a33bc4286
 **********************************************************************************************************************************

 Memory per process:       100 MW
 Total memory per node:    100 MW

 GA preallocation disabled
 GA check disabled

 Variable memory set to 100.0 MW

 ZCENTRE=MASS
 ZUNIT=ANG

 SETTING ROH            =         0.95840000  ANG                             
 SETTING HOH            =       104.45000000  DEGREE                          


 Using masses of most abundant isotopes

 **********************************************************************************************************************************
 SETTING BASIS          =    VTZ


 Recomputing integrals since basis changed


 Using spherical harmonics

 Library entry H      S cc-pVTZ              selected for orbital group  1
 Library entry H      P cc-pVTZ              selected for orbital group  1
 Library entry H      D cc-pVTZ              selected for orbital group  1
 Library entry O      S cc-pVTZ              selected for orbital group  2
 Library entry O      P cc-pVTZ              selected for orbital group  2
 Library entry O      D cc-pVTZ              selected for orbital group  2
 Library entry O      F cc-pVTZ              selected for orbital group  2


 PROGRAM * SEWARD (Integral evaluation for generally contracted gaussian basis sets)     Author: Roland Lindh, 1990

 Geometry written to block  1 of record 700

 Orientation using atomic masses  
 Molecule type: Asymmetric top,     Order of principal axis = 2
 Symmetry elements: X,Y
 Rotational constants:     284.9313755    819.1311631    436.9080155 GHz

 Point group  C2v 



 ATOMIC COORDINATES

 NR  ATOM    CHARGE       X              Y              Z

   1  H1      1.00    0.000000000   -1.431544636    0.985259130
   2  O       8.00    0.000000000    0.000000000   -0.124160596
   3  H2      1.00    0.000000000    1.431544636    0.985259130
 Bond lengths in Bohr (Angstrom)

 1-3  1.811113518  2-3  1.811113518
     ( 0.958400000)     ( 0.958400000)

 Bond angles

  1-3-2  104.45000000

 NUCLEAR CHARGE:                   10
 NUMBER OF PRIMITIVE AOS:          81
 NUMBER OF SYMMETRY AOS:           74
 NUMBER OF CONTRACTIONS:           58   (   23A1  +   11B1  +   17B2  +    7A2  )
 NUMBER OF INNER CORE ORBITALS:     0   (    0A1  +    0B1  +    0B2  +    0A2  )
 NUMBER OF OUTER CORE ORBITALS:     1   (    1A1  +    0B1  +    0B2  +    0A2  )
 NUMBER OF VALENCE ORBITALS:        6   (    3A1  +    1B1  +    2B2  +    0A2  )


 NUCLEAR REPULSION ENERGY    9.18361717

 Eigenvalues of metric

         1 0.258E-02 0.580E-02 0.108E-01 0.417E-01 0.840E-01 0.114E+00 0.167E+00 0.270E+00
         2 0.402E-01 0.109E+00 0.245E+00 0.447E+00 0.522E+00 0.703E+00 0.110E+01 0.134E+01
         3 0.474E-02 0.760E-02 0.479E-01 0.691E-01 0.925E-01 0.169E+00 0.279E+00 0.319E+00
         4 0.115E+00 0.317E+00 0.540E+00 0.879E+00 0.121E+01 0.132E+01 0.230E+01


 Contracted 2-electron integrals neglected if value below      1.0D-11
 AO integral compression algorithm  1   Integral accuracy      1.0D-11

     2.884 MB (compressed) written to integral file ( 61.6%)


 NUMBER OF SORTED TWO-ELECTRON INTEGRALS:     396151.     BUFFER LENGTH:  32768
 NUMBER OF SEGMENTS:   1  SEGMENT LENGTH:     396151      RECORD LENGTH: 524288

 Memory used in sort:       0.95 MW

 SORT1 READ      546090. AND WROTE      366996. INTEGRALS IN      2 RECORDS. CPU TIME:     0.01 SEC, REAL TIME:     0.02 SEC
 SORT2 READ      366996. AND WROTE      396151. INTEGRALS IN     11 RECORDS. CPU TIME:     0.02 SEC, REAL TIME:     0.02 SEC

 FILE SIZES:   FILE 1:    32.9 MBYTE,  FILE 4:     8.4 MBYTE,   TOTAL:     41.4 MBYTE

 OPERATOR DM      FOR CENTER  0  COORDINATES:    0.000000    0.000000    0.000000


 **********************************************************************************************************************************
 DATASETS  * FILE   NREC   LENGTH (MB)   RECORD NAMES
              1      19       30.48       500      610      700      900      950      970     1000      129      960     1100   
                                          VAR    BASINP    GEOM    SYMINP    ZMAT    AOBASIS   BASIS     P2S    ABASIS      S 
                                         1400     1410     1200     1210     1080     1600     1650     1300     1700   
                                           T        V       H0       H01     AOSYM     SMH    MOLCAS    ERIS     OPER   

 PROGRAMS   *        TOTAL       INT
 CPU TIMES  *         0.35      0.25
 REAL TIME  *         0.46 SEC
 DISK USED  *        39.71 MB
 **********************************************************************************************************************************


 Program * Restricted Hartree-Fock

 Orbital guess generated from atomic densities. Full valence occupancy:    4   1   2   0

 Initial occupancy:   3   1   1   0

 NELEC=   10   SYM=1   MS2= 0   THRE=1.0D-08   THRD=1.0D-06   THRG=1.0D-06  HFMA2=F  DIIS_START=2   DIIS_MAX=10   DIIS_INCORE=F

 Level shifts:    0.00 (CLOSED)    0.00 (OPEN)    0.30 (GAP_MIN)

 ITER           ETOT              DE          GRAD        DDIFF     DIIS  NEXP   TIME(IT)  TIME(TOT)  DIAG
   1      -76.01905164     -76.01905164     0.00D+00     0.19D+00     0     0       0.00      0.01    start
   2      -76.04692651      -0.02787487     0.23D-01     0.33D-01     1     0       0.02      0.03    diag
   3      -76.05687317      -0.00994666     0.14D-01     0.11D-01     2     0       0.00      0.03    diag
   4      -76.05706142      -0.00018826     0.13D-02     0.16D-02     3     0       0.00      0.03    diag
   5      -76.05708097      -0.00001955     0.37D-03     0.55D-03     4     0       0.00      0.03    diag
   6      -76.05708199      -0.00000102     0.71D-04     0.13D-03     5     0       0.00      0.03    diag
   7      -76.05708202      -0.00000003     0.12D-04     0.25D-04     6     0       0.00      0.03    diag
   8      -76.05708202      -0.00000000     0.18D-05     0.37D-05     7     0       0.01      0.04    fixocc
   9      -76.05708202      -0.00000000     0.17D-06     0.39D-06     8     0       0.00      0.04    diag
  10      -76.05708202      -0.00000000     0.38D-07     0.57D-07     0     0       0.00      0.04    diag/orth

 Final occupancy:   3   1   1   0

 !RHF STATE 1.1 Energy                -76.057082024032
  RHF One-electron energy            -123.099136226859
  RHF Two-electron energy              37.858437037220
  RHF Kinetic energy                   76.001192504414
  RHF Nuclear energy                    9.183617165607
  RHF Virial quotient                  -1.000735376877

 !RHF STATE 1.1 Dipole moment           0.00000000     0.00000000     0.79747250
 Dipole moment /Debye                   0.00000000     0.00000000     2.02697292

 Orbital energies:

           1.1          2.1          3.1          4.1          5.1
    -20.554973    -1.345107    -0.577622     0.142135     0.601824

           1.2          2.2          3.2
     -0.504401     0.787378     0.954856

           1.3          2.3          3.3
     -0.709028     0.203958     0.543633

           1.4          2.4
      0.861008     2.065449


 HOMO      1.2    -0.504401 =     -13.7254eV
 LUMO      4.1     0.142135 =       3.8677eV
 LUMO-HOMO         0.646536 =      17.5931eV

 Orbitals saved in record  2100.2


 **********************************************************************************************************************************
 DATASETS  * FILE   NREC   LENGTH (MB)   RECORD NAMES
              1      19       30.48       500      610      700      900      950      970     1000      129      960     1100   
                                          VAR    BASINP    GEOM    SYMINP    ZMAT    AOBASIS   BASIS     P2S    ABASIS      S 
                                         1400     1410     1200     1210     1080     1600     1650     1300     1700   
                                           T        V       H0       H01     AOSYM     SMH    MOLCAS    ERIS     OPER   

              2       4        0.38       700     1000      520     2100   
                                         GEOM     BASIS   MCVARS     RHF  

 PROGRAMS   *        TOTAL    HF-SCF       INT
 CPU TIMES  *         0.39      0.04      0.25
 REAL TIME  *         0.48 SEC
 DISK USED  *        39.71 MB
 **********************************************************************************************************************************


 PROGRAM * CCSD (Closed-shell coupled cluster)     Authors: C. Hampel, H.-J. Werner, 1991, M. Deegan, P.J. Knowles, 1992


 Convergence thresholds:  THRVAR = 1.00D-12  THRDEN = 1.00D-08

 CCSD(T)     terms to be evaluated (factor= 1.000)


 Using ITF CCSD(T) gradient implementation

 Number of core orbitals:           1 (   1   0   0   0 )
 Number of closed-shell orbitals:   4 (   2   1   1   0 )
 Number of external orbitals:      53 (  20  10  16   7 )

 Molecular orbitals read from record     2100.2  Type=RHF/CANONICAL  

 Integral transformation finished. Total CPU:   0.06 sec, npass=  1  Memory used:   0.12 MW
 Time for re-packing tensors:             0.00 sec
  Reference energy                    -76.057082024032

  MP2 correlation energy               -0.261554793471
  MP2 total energy                    -76.318636817503

 ITER.      SQ.NORM     CORR.ENERGY   TOTAL ENERGY   ENERGY CHANGE        DEN1      VAR(S)    VAR(P)  DIIS     TIME
   1      1.06055615    -0.26699711   -76.32407914    -0.00544232    -0.00044387  4.66e-04  8.18e-04  1  1     0.06
   2      1.06356657    -0.26736044   -76.32444246    -0.00036332    -0.00436011  2.38e-05  9.39e-05  2  2     0.12
   3      1.06439204    -0.26746194   -76.32454396    -0.00010150    -0.00057985  1.43e-06  1.41e-05  3  3     0.18
   4      1.06484137    -0.26747027   -76.32455230    -0.00000834    -0.00040985  5.85e-08  1.30e-06  4  4     0.24
   5      1.06496971    -0.26746371   -76.32454573     0.00000656    -0.00009284  5.11e-09  8.75e-08  5  5     0.29
   6      1.06499770    -0.26746230   -76.32454432     0.00000141    -0.00001908  5.05e-11  2.53e-09  6  0     0.32
   7      1.06499972    -0.26746195   -76.32454398     0.00000035    -0.00000155  1.63e-11  1.25e-10  6  1     0.38
   8      1.06499962    -0.26746193   -76.32454396     0.00000002     0.00000000  9.41e-14  7.98e-12  6  2     0.42
   9      1.06499960    -0.26746193   -76.32454396    -0.00000000     0.00000000  1.19e-14  5.39e-13           0.47

 Norm of t1 vector:      0.02611170     S-energy:     -0.00000000   T1 diagnostic:  0.00652793

 Time per iteration:                      0.05 sec

 RESULTS
 =======

  Reference energy                    -76.057082024032
  CCSD correlation energy              -0.267461934375
  CCSD total energy                   -76.324543958407

  Triples (T) contribution             -0.007653505832
  Total correlation energy             -0.275115440207
  CCSD[T] total energy                -76.332389936251
 !CCSD(T) total energy                -76.332197464239

 Starting CP-CCSD(T) iterations.   Author: W. Gyorffy (2015)

 ITER.      NRM1           NRM2      VAR(S)+VAR(P)   DIIS    TIME
   1     0.00033517     0.23835275     2.00e-03      1  1    0.05
   2     0.00038304     0.23684259     2.38e-05      2  2    0.09
   3     0.00038511     0.23722763     1.28e-06      3  3    0.13
   4     0.00039134     0.23724330     1.57e-07      4  4    0.17
   5     0.00039493     0.23724502     2.73e-08      5  5    0.21
   6     0.00039708     0.23724320     3.72e-09      6  0    0.25
   7     0.00039793     0.23724463     4.28e-10      6  1    0.30
   8     0.00039825     0.23724586     2.61e-11      6  2    0.34
   9     0.00039831     0.23724631     8.06e-13              0.39


 Time per iteration:                      0.04 sec

 CPHF start vector      0.2 not found

 Starting Coupled-perturbed Hartree-Fock, convergence threshold= 1.0D-06

 ITER   MIC  DIIS      VAR         VARC       CPU
   1     0     1    0.24D-02    0.74D-03     0.00
   2     3     2    0.12D-03    0.13D-04     0.01
   3     4     3    0.14D-05    0.47D-06     0.01
   4     1     4    0.20D-06    0.80D-08     0.01

 CPHF convergence reached in  4 macroiterations and    8 microiterations.   Accuracy: 1.9984D-07

 CPHF solution written to record  8500.2

 Dipole moments (unrelaxed):            0.00000000     0.00000000     0.74585498
 Orbital relaxation contribution:      -0.00000000    -0.00000000     0.00269460
 !CCSD(T) STATE 1.1 Dipole moment       0.00000000     0.00000000     0.74854958
 Dipole moment /Debye                   0.00000000     0.00000000     1.90262326

 CPU-time for coupled-perturbed hartree-fock:          0.01 sec

 Number of N-1 electron functions:               4
 Number of N-2 electron functions:              10
 Number of singly external CSFs:                66
 Number of doubly external CSFs:              5929
 Total number of CSFs:                        5996

 CCSD(T) gradient info saved on record        55555.1




 **********************************************************************************************************************************
 DATASETS  * FILE   NREC   LENGTH (MB)   RECORD NAMES
              1      22       32.48       500      610      700      900      950      970     1000      129      960     1100   
                                          VAR    BASINP    GEOM    SYMINP    ZMAT    AOBASIS   BASIS     P2S    ABASIS      S 
                                         1400     1410     1200     1210     1080     1600     1650     1300     1700     1380   
                                           T        V       H0       H01     AOSYM     SMH    MOLCAS    ERIS     OPER     JKOP   
                                         3791    55555   
                                                 CCSD(T)    

              2       5        0.42       700     1000      520     2100     8500   
                                         GEOM     BASIS   MCVARS     RHF     CPHF   

 PROGRAMS   *        TOTAL   CCSD(T)    HF-SCF       INT
 CPU TIMES  *         2.84      2.44      0.04      0.25
 REAL TIME  *         1.72 SEC
 DISK USED  *        46.82 MB
 **********************************************************************************************************************************


 PROGRAM * OPT (Geometry optimization)     Authors: F. Eckert and H.-J. Werner


 BFGS update of hessian

 *** Long output written to logfile /home/koe/bachelorthesis/calc/H2O/h2o.log ***


 Geometry optimization using default procedure for command CCSD(T)

 Geometry written to block  1 of record 700

 Making model hessian for Z-matrix coordinates

 Entering Rational Function Geometry Optimization

 ITER.   ENERGY(OLD)    ENERGY(NEW)      DE          GRADMAX     GRADNORM    GRADRMS     STEPMAX     STEPLEN     STEPRMS   CPU-time
   1   -76.33219746   -76.33221374    -0.00001627  0.00237090  0.00261212  0.00184704  0.00967390  0.00970593  0.00485297      4.34
   2   -76.33221374   -76.33221651    -0.00000277  0.00087978  0.00120994  0.00085556  0.00552531  0.00561619  0.00280809      8.56
   3   -76.33221651   -76.33221652    -0.00000001  0.00015895  0.00016001  0.00011315  0.00011849  0.00012274  0.00006137     12.70

 END OF GEOMETRY OPTIMIZATION.

 Optimized variables
 ROH=                 0.95941211 ANG
 HOH=               103.58098473 DEGREE

 **********************************************************************************************************************************

 Geometry written to block  1 of record 700

 Recomputing wavefunction for reoriented structure

 Current geometry (xyz format, in Angstrom)

    3
 CCSD(T)/VTZ  ENERGY=-76.33221652
 H          0.0000000000       -0.7538621602        0.5270195477
 O          0.0000000000        0.0000000000       -0.0664140624
 H          0.0000000000        0.7538621602        0.5270195477

 **********************************************************************************************************************************


 **********************************************************************************************************************************
 DATASETS  * FILE   NREC   LENGTH (MB)   RECORD NAMES
              1      22       32.48       500      610      700      900      950      970     1000      129      960     1100   
                                          VAR    BASINP    GEOM    SYMINP    ZMAT    AOBASIS   BASIS     P2S    ABASIS      S 
                                         1400     1410     1200     1210     1080     1600     1650     1300     1700     1380   
                                           T        V       H0       H01     AOSYM     SMH    MOLCAS    ERIS     OPER     JKOP   
                                         3791    55555   
                                                 CCSD(T)    

              2       6        0.45       700     1000      520     2100     8500     9001   
                                         GEOM     BASIS   MCVARS     RHF     CPHF    DEN_MP2    

 PROGRAMS   *        TOTAL      OPTG   CCSD(T)    HF-SCF       INT
 CPU TIMES  *        17.77     14.93      2.44      0.04      0.25
 REAL TIME  *        20.92 SEC
 DISK USED  *        62.01 MB
 **********************************************************************************************************************************


 PROGRAM * HESSIAN

 Computing numerical hessian using default procedure for command CCSD(T)

 Symmetry elements for unique displacements: X  Y  

 Using AUTO symmetry option

 Running default procedure: HF-SCF000  CCSD(T)


 Numerically approximating hessian using central gradient differences

 Task list generated. Total number of displacements:      9

    5 tasks completed, CPU=1m 48s Elapsed=1m 15s

 Numerical CCSD(T) hessian completed. CPU-time:   164.61 sec, Elapsed:   114.43 sec

 CCSD(T) hessian saved to record  5300.2

 PROGRAM * FREQUENCIES (Calculation of harmonic vibrational spectra for CCSD(T))


 Permanent Dipole Moment [debye]
   1-  3    0.000000    0.000000    1.915041

 Dipole Moment Norm    1.9150407 [debye]

 Dipole Moment Derivatives [debye/ang]
              1             2             3             4             5             6             7             8
    1     1.6135608     0.0000000     0.0000000    -3.2268888     0.0000000     0.0000000     1.6135608     0.0000000
    2     0.0000000     1.0890558     0.4128473     0.0000000    -2.1781158     0.0000000     0.0000000     1.0890558
    3     0.0000000     0.3477306     0.7705640     0.0000000     0.0000000    -1.5411752     0.0000000    -0.3477306
              9
    1     0.0000000
    2    -0.4128473
    3     0.7705640

 Projecting out rotations and translations

 Force Constants (Second Derivatives of the Energy) in [a.u.]
                             H1X1        H1Y1        H1Z1        OX2         OY2     
           H1X1          0.0000000
           H1Y1          0.0000000   0.3734658
           H1Z1          0.0000000  -0.2359111   0.2218072
           OX2           0.0000000   0.0000000   0.0000000   0.0000000
           OY2           0.0000000  -0.3401601   0.2677710   0.0000000   0.6803201
           OZ2           0.0000000   0.2040513  -0.2328275   0.0000000  -0.0000000
           H2X3          0.0000000   0.0000000   0.0000000   0.0000000   0.0000000
           H2Y3          0.0000000  -0.0333058  -0.0318598   0.0000000  -0.3401601
           H2Z3          0.0000000   0.0318598   0.0110203   0.0000000  -0.2677710
                             OZ2         H2X3        H2Y3        H2Z3    
           OZ2           0.4656550
           H2X3          0.0000000   0.0000000
           H2Y3         -0.2040513   0.0000000   0.3734658
           H2Z3         -0.2328275   0.0000000   0.2359111   0.2218072


 Atomic Masses
   1-  3    1.007825   15.994910    1.007825

 Mass weighted Second Derivative Matrix
                             H1X1        H1Y1        H1Z1        OX2         OY2     
           H1X1          0.0000000
           H1Y1          0.0000000   0.3705661
           H1Z1          0.0000000  -0.2340795   0.2200851
           OX2           0.0000000   0.0000000   0.0000000   0.0000000
           OY2           0.0000000  -0.0847227   0.0666930   0.0000000   0.0425335
           OZ2           0.0000000   0.0508225  -0.0579897   0.0000000  -0.0000000
           H2X3          0.0000000   0.0000000   0.0000000   0.0000000   0.0000000
           H2Y3          0.0000000  -0.0330472  -0.0316125   0.0000000  -0.0847227
           H2Z3          0.0000000   0.0316125   0.0109347   0.0000000  -0.0666930
                             OZ2         H2X3        H2Y3        H2Z3    
           OZ2           0.0291127
           H2X3          0.0000000   0.0000000
           H2Y3         -0.0508225   0.0000000   0.3705661
           H2Z3         -0.0579897   0.0000000   0.2340795   0.2200851


 Mass Weighted 2nd Derivative Matrix Eigenvalues
   1-  9    0.000000    0.000000    0.000000    0.000000    0.000000    0.000000    0.105366    0.558380    0.589203

 Mass Weighted 2nd Derivative Matrix Eigenvectors
              1             2             3             4             5             6             7             8
    1     0.0000000     0.0000000     0.0000000     0.0000000     1.0000000     0.0000000     0.0000000     0.0000000
    2     0.2941454     0.0855496    -0.3374240    -0.0492727     0.0000000     0.0587966     0.4133023     0.5737432
    3     0.4749917    -0.2403729    -0.2938102    -0.0594417     0.0000000     0.0722330     0.5406856    -0.3894889
    4    -0.1998226    -0.0581794     0.0252412    -0.4045219     0.0000000     0.8901747     0.0000000     0.0000000
    5     0.2328887     0.9279852     0.0361162    -0.0668213     0.0000000     0.0815388     0.0000000     0.0000000
    6     0.6995159    -0.2116916     0.5830278    -0.0723314     0.0000000     0.0937872    -0.2714416     0.1955360
    7     0.0502171     0.0157064    -0.0104903     0.9042905     0.0000000     0.4235330     0.0000000     0.0000000
    8     0.2941454     0.0855496    -0.3374240    -0.0492727     0.0000000     0.0587966    -0.4133023    -0.5737432
    9    -0.1238121     0.1340969     0.5865090     0.0231290     0.0000000    -0.0251488     0.5406856    -0.3894889
              9
    1     0.0000000
    2     0.5351822
    3    -0.4212907
    4     0.0000000
    5    -0.2686788
    6     0.0000000
    7     0.0000000
    8     0.5351822
    9     0.4212907

   Low Vibration      Wavenumber
        Nr             [1/cm] 
        1                0.00
        2                0.00
        3                0.00
        4                0.00
        5                0.00
        6                0.00

     Vibration        Wavenumber
        Nr             [1/cm] 
        1             1668.61
        2             3841.22
        3             3945.81

 FREQUENCIES * CALCULATION OF NORMAL MODES FOR CCSD(T)


 Atomic Coordinates

  Nr  Atom  Charge       X              Y              Z

   1   H1    1.00    0.000000000   -1.424593018    0.995922608
   2   O     8.00    0.000000000    0.000000000   -0.125504389
   3   H2    1.00    0.000000000    1.424593018    0.995922608

 Gradient norm at reference geometry: 0.30038D-03

 Normal Modes

                              1 A1        2 A1        3 B2 
 Wavenumbers [cm-1]         1668.61     3841.22     3945.81
 Intensities [km/mol]         62.99        3.21       39.02
 Intensities [relative]      100.00        5.10       61.95
           H1X1            -0.00000     0.00000    -0.00000
           H1Y1             0.41169     0.57151     0.53310
           H1Z1             0.53858    -0.38797    -0.41965
           OX2              0.00000    -0.00000    -0.00000
           OY2              0.00000    -0.00000    -0.06718
           OZ2             -0.06787     0.04889    -0.00000
           H2X3            -0.00000    -0.00000    -0.00000
           H2Y3            -0.41169    -0.57151     0.53310
           H2Z3             0.53858    -0.38797     0.41965


 Normal Modes of low/zero frequencies

                                  1           2           3           4           5
 Wavenumbers [cm-1]            0.00        0.00        0.00        0.00        0.00
 Intensities [km/mol]          0.00        0.00        0.00        0.00        0.00
 Intensities [relative]        0.00        0.00        0.00        0.00        0.00
           H1X1            -0.00000    -0.00000     0.00000    -0.00000     0.99611
           H1Y1             0.29300     0.08522    -0.33611    -0.04908    -0.00000
           H1Z1             0.47314    -0.23944    -0.29267    -0.05921    -0.00000
           OX2             -0.04996    -0.01455     0.00631    -0.10115    -0.00000
           OY2              0.05823     0.23203     0.00903    -0.01671    -0.00000
           OZ2              0.17491    -0.05293     0.14578    -0.01809    -0.00000
           H2X3             0.05002     0.01565    -0.01045     0.90077     0.00000
           H2Y3             0.29300     0.08522    -0.33611    -0.04908    -0.00000
           H2Z3            -0.12333     0.13358     0.58423     0.02304     0.00000

                                  6
 Wavenumbers [cm-1]            0.00
 Intensities [km/mol]          0.00
 Intensities [relative]        0.00
           H1X1             0.00000
           H1Y1             0.05857
           H1Z1             0.07195
           OX2              0.22258
           OY2              0.02039
           OZ2              0.02345
           H2X3             0.42189
           H2Y3             0.05857
           H2Z3            -0.02505


 Frequencies dumped to record   5400.2

 Zero point energy:  0.02154154 [H]     4727.82 [1/CM]       56.56 [KJ/MOL]
 Frequency information read from record  5400.2

 Recomputing wavefunction at initial geometry


 **********************************************************************************************************************************
 DATASETS  * FILE   NREC   LENGTH (MB)   RECORD NAMES
              1      23       32.69       500      610      700      701      900      950      970     1000      129      960   
                                          VAR    BASINP    GEOM     GEOM    SYMINP    ZMAT    AOBASIS   BASIS     P2S    ABASIS    
                                         1100     1400     1410     1200     1210     1080     1600     1650     1300     1700   
                                           S        T        V       H0       H01     AOSYM     SMH    MOLCAS    ERIS     OPER   
                                         1380     3791    55555   
                                         JKOP             CCSD(T)    

              2       9        0.46       700     1000      520     2100     8500     9001     5300     5450     5400   
                                         GEOM     BASIS   MCVARS     RHF     CPHF    DEN_MP2   HESS     NMOD     FREQ   

 PROGRAMS   *        TOTAL      FREQ      OPTG   CCSD(T)    HF-SCF       INT
 CPU TIMES  *        97.40     79.62     14.93      2.44      0.04      0.25
 REAL TIME  *       136.76 SEC
 DISK USED  *       134.85 MB
 **********************************************************************************************************************************

 Dump information in style MOLDEN to h2o.molden                                                                      

 Molecular orbitals read from record     2100.2  Type=RHF/CANONICAL (state 1.1)
 Occupation numbers read from record     2100.2  Type=RHF/RHF (state 1.1)
 Orbital energies read from record       2100.2  Type=RHF/CANONICAL (state 1.1)
 Redundancy group numbers read from rec  2100.2  Type=RHF/RHF (state 1.1)

 DUMP ORBITAL  1.1 AS ORBITAL    1  occ=    2.0000  eig=  -20.5556  GROUP=   2
 DUMP ORBITAL  2.1 AS ORBITAL    2  occ=    2.0000  eig=   -1.3452  GROUP=   2
 DUMP ORBITAL  1.3 AS ORBITAL    3  occ=    2.0000  eig=   -0.7068  GROUP=   2
 DUMP ORBITAL  3.1 AS ORBITAL    4  occ=    2.0000  eig=   -0.5792  GROUP=   2
 DUMP ORBITAL  1.2 AS ORBITAL    5  occ=    2.0000  eig=   -0.5046  GROUP=   2

 Total charge:      10.000000
 Frequency information read from record  5400.2

 **********************************************************************************************************************************

 CCSD(T)/cc-pVTZ energy=    -76.332216518904

   OPTG(CCSD(T))         CCSD(T)          HF-SCF
    -76.33221652    -76.33219746    -76.05708202
 **********************************************************************************************************************************
 Molpro calculation terminated
