
 Working directory              : /scratch/ddi/tmpdir_562238/molpro.IJlL6fsTuU/
 Global scratch directory       : /scratch/ddi/tmpdir_562238/molpro.IJlL6fsTuU/
 Wavefunction directory         : /home/ddi/storage_4/HCO3CH3/EE/vtzf12/ccf12/of/
 Main file repository           : /home/ddi/storage_4/HCO3CH3/EE/vtzf12/ccf12/of/

 id        : liedlgroup

 Nodes     nprocs
 rune02      12
 GA implementation: MPI file
 GA implementation (serial work in mppx): MPI file

 Using customized tuning parameters: mindgm=1; mindgv=20; mindgc=4; mindgr=1; noblas=0; minvec=7
 default implementation of scratch files=df  


 Variables initialized (1009), CPU time= 0.01 sec
 ***,hco3ch3 CAME vibrational spectrum
 memory,1000,m
 
 file,1,hco3ch3_EE_ccf12tz.int
 file,2,hco3ch3_EE_ccf12tz.wfu
 
 orient,mass
 geometry={
 O1
 C1,O1,B1
 O2,C1,B2,O1,A1
 H1,O2,B3,C1,A2,O1,0.0
 O3,C1,B4,O1,A3,H1,180.0
 C2,O3,B5,C1,A4,O1,0.0
 H2,C2,B6,O3,A5,C1,180.0
 H3,C2,B7,O3,A6,C1,D1
 H4,C2,B7,O3,A6,C1,-D1
 }
 
 B1=                  1.20826386 ANG
 B2=                  1.34632938 ANG
 A1=                125.37105052 DEGREE
 B3=                  0.96620055 ANG
 A2=                104.93520844 DEGREE
 B4=                  1.33375801 ANG
 A3=                126.65441654 DEGREE
 B5=                  1.43708653 ANG
 A4=                113.41206325 DEGREE
 B6=                  1.08375252 ANG
 A5=                105.23462880 DEGREE
 B7=                  1.08668081 ANG
 A6=                110.40633463 DEGREE
 D1=                 60.53271261 DEGREE
 
 mass,iso
 basis=vtz-f12
 {hf
 start,atden}
 ccsd(t)-f12a
 optg
 freq,symm=auto
 put,molden,molden.dat
 
 Commands initialized (810), CPU time= 0.00 sec, 661 directives.
 Default parameters read. Elapsed time= 0.14 sec

 Checking input...
 Passed
1


                                         ***  PROGRAM SYSTEM MOLPRO  ***
                                       Copyright, TTI GmbH Stuttgart, 2015
                                    Version 2021.2 linked Jul 16 2021 07:37:36


 **********************************************************************************************************************************
 LABEL *   hco3ch3 CAME vibrational spectrum                                             
  64 bit mppx version                                                                    DATE: 16-Sep-21          TIME: 16:37:29  
 **********************************************************************************************************************************

 SHA1:             dade016a989826d9d859d6207854b99675d53db3
 **********************************************************************************************************************************

 Memory per process:      1000 MW
 Total memory per node:   1000 MW

 GA preallocation disabled
 GA check disabled

 Variable memory set to 1000.0 MW



 Permanent file  1  hco3ch3_ee_ccf12tz.int           assigned.  Implementation=df  
 Permanent file  2  hco3ch3_ee_ccf12tz.wfu           assigned.  Implementation=df  



 **********************************************************************************************************************************
 DATASETS  * FILE   NREC   LENGTH (MB)   RECORD NAMES
              1       1        0.03       500   
                                          VAR  

              2       1        0.03       500   
                                          VAR  

 PROGRAMS   *        TOTAL      FILE
 CPU TIMES  *         0.22      0.01
 REAL TIME  *         0.43 SEC
 DISK USED  *         0.10 MB
 **********************************************************************************************************************************
 ZCENTRE=MASS

 SETTING B1             =         1.20826386  ANG                             
 SETTING B2             =         1.34632938  ANG                             
 SETTING A1             =       125.37105052  DEGREE                          
 SETTING B3             =         0.96620055  ANG                             
 SETTING A2             =       104.93520844  DEGREE                          
 SETTING B4             =         1.33375801  ANG                             
 SETTING A3             =       126.65441654  DEGREE                          
 SETTING B5             =         1.43708653  ANG                             
 SETTING A4             =       113.41206325  DEGREE                          
 SETTING B6             =         1.08375252  ANG                             
 SETTING A5             =       105.23462880  DEGREE                          
 SETTING B7             =         1.08668081  ANG                             
 SETTING A6             =       110.40633463  DEGREE                          
 SETTING D1             =        60.53271261  DEGREE                          


 Using masses of most abundant isotopes

 **********************************************************************************************************************************
 SETTING BASIS          =    VTZ-F12


 Recomputing integrals since basis changed


 Using spherical harmonics

 Library entry O      S cc-pVTZ-F12          selected for orbital group  1
 Library entry O      P cc-pVTZ-F12          selected for orbital group  1
 Library entry O      D cc-pVTZ-F12          selected for orbital group  1
 Library entry O      F cc-pVTZ-F12          selected for orbital group  1
 Library entry C      S cc-pVTZ-F12          selected for orbital group  2
 Library entry C      P cc-pVTZ-F12          selected for orbital group  2
 Library entry C      D cc-pVTZ-F12          selected for orbital group  2
 Library entry C      F cc-pVTZ-F12          selected for orbital group  2
 Library entry H      S cc-pVTZ-F12          selected for orbital group  4
 Library entry H      P cc-pVTZ-F12          selected for orbital group  4
 Library entry H      D cc-pVTZ-F12          selected for orbital group  4


 PROGRAM * SEWARD (Integral evaluation for generally contracted gaussian basis sets)     Author: Roland Lindh, 1990

 Geometry written to block  1 of record 700

 Orientation using atomic masses  
 Molecule type: Asymmetric top
 Symmetry elements: Y
 Rotational constants:       4.4570786      3.2435983     11.0853145 GHz

 Point group  Cs  



 ATOMIC COORDINATES

 NR  ATOM    CHARGE       X              Y              Z

   1  O1      8.00   -2.464364476    0.000000000    0.789834067
   2  C1      6.00   -0.181392906    0.000000000    0.827832820
   3  O2      8.00    1.256633138    0.000000000    2.926642768
   4  H1      1.00    0.067269896    0.000000000    4.311980072
   5  O3      8.00    1.356718003    0.000000000   -1.168869285
   6  C2      6.00    0.040951674    0.000000000   -3.544534505
   7  H2      1.00    1.508817919    0.000000000   -4.972699078
   8  H3      1.00   -1.134201984    1.675676761   -3.712174303
   9  H4      1.00   -1.134201984   -1.675676761   -3.712174303

 Bond lengths in Bohr (Angstrom)

 1-2  2.283287782  2-3  2.544193802  2-5  2.520437355  3-4  1.825854421  5-6  2.715699959
     ( 1.208263860)     ( 1.346329380)     ( 1.333758010)     ( 0.966200550)     ( 1.437086530)

 6-7  2.047995450  6-8  2.053529116  6-9  2.053529116
     ( 1.083752520)     ( 1.086680810)     ( 1.086680810)

 Bond angles

  1-2-3  125.37105052   1-2-5  126.65441654   2-3-4  104.93520844   2-5-6  113.41206325

  3-2-5  107.97453294   5-6-7  105.23462880   5-6-8  110.40633463   5-6-9  110.40633463

  7-6-8  110.68501313   7-6-9  110.68501313   8-6-9  109.37243054

 NUCLEAR CHARGE:                   40
 NUMBER OF PRIMITIVE AOS:         444
 NUMBER OF SYMMETRY AOS:          395
 NUMBER OF CONTRACTIONS:          337   (  219A'  +  118A"  )
 NUMBER OF INNER CORE ORBITALS:     0   (    0A'  +    0A"  )
 NUMBER OF OUTER CORE ORBITALS:     5   (    5A'  +    0A"  )
 NUMBER OF VALENCE ORBITALS:       24   (   18A'  +    6A"  )


 NUCLEAR REPULSION ENERGY  184.45707529


 Eigenvalues of metric

         1 0.581E-04 0.982E-04 0.138E-03 0.171E-03 0.208E-03 0.237E-03 0.296E-03 0.362E-03
         2 0.289E-03 0.527E-03 0.561E-03 0.677E-03 0.682E-03 0.691E-03 0.169E-02 0.297E-02


 Contracted 2-electron integrals neglected if value below      1.0D-11
 AO integral compression algorithm  1   Integral accuracy      1.0D-11

     3154.641 MB (compressed) written to integral file ( 42.7%)


 NUMBER OF SORTED TWO-ELECTRON INTEGRALS:  822234496.     BUFFER LENGTH:  32768
 NUMBER OF SEGMENTS:  26  SEGMENT LENGTH:   31996000      RECORD LENGTH: 524288

 Memory used in sort:      32.55 MW

 SORT1 READ   923025426. AND WROTE   736095372. INTEGRALS IN   2119 RECORDS. CPU TIME:    10.70 SEC, REAL TIME:    21.81 SEC
 SORT2 READ   736095372. AND WROTE   822234496. INTEGRALS IN  12034 RECORDS. CPU TIME:    27.91 SEC, REAL TIME:    32.45 SEC

 FILE SIZES:   FILE 1:  3187.8 MBYTE,  FILE 4:  8887.8 MBYTE,   TOTAL:  12075.6 MBYTE

 OPERATOR DM      FOR CENTER  0  COORDINATES:    0.000000    0.000000    0.000000


 **********************************************************************************************************************************
 DATASETS  * FILE   NREC   LENGTH (MB)   RECORD NAMES
              1      19     2827.51       500      610      700      900      950      970     1000      129      960     1100   
                                          VAR    BASINP    GEOM    SYMINP    ZMAT    AOBASIS   BASIS     P2S    ABASIS      S 
                                         1400     1410     1200     1210     1080     1600     1650     1300     1700   
                                           T        V       H0       H01     AOSYM     SMH    MOLCAS    ERIS     OPER   

              2       5       11.85       500      610      700     1000      520   
                                          VAR    BASINP    GEOM     BASIS   MCVARS    

 PROGRAMS   *        TOTAL       INT      FILE
 CPU TIMES  *        77.22     77.00      0.01
 REAL TIME  *        97.91 SEC
 DISK USED  *        11.26 GB
 **********************************************************************************************************************************


 Program * Restricted Hartree-Fock

 Orbital guess generated from atomic densities. Full valence occupancy:   23   6

 Initial occupancy:  16   4

 NELEC=   40   SYM=1   MS2= 0   THRE=1.0D-08   THRD=1.0D-06   THRG=1.0D-06  HFMA2=F  DIIS_START=2   DIIS_MAX=10   DIIS_INCORE=F

 Level shifts:    0.00 (CLOSED)    0.00 (OPEN)    0.30 (GAP_MIN)

 ITER           ETOT              DE          GRAD        DDIFF     DIIS  NEXP   TIME(IT)  TIME(TOT)  DIAG
   1     -302.69514233    -302.69514233     0.00D+00     0.50D-01     0     0       4.28      8.18    start
   2     -302.77193461      -0.07679228     0.64D-02     0.66D-02     1     0       4.27     12.45    diag
   3     -302.81465280      -0.04271818     0.42D-02     0.28D-02     2     0       4.07     16.52    diag
   4     -302.81614204      -0.00148924     0.59D-03     0.52D-03     3     0       4.26     20.78    diag
   5     -302.81640130      -0.00025926     0.26D-03     0.23D-03     4     0       4.17     24.95    diag
   6     -302.81643782      -0.00003652     0.72D-04     0.83D-04     5     0       4.18     29.13    diag
   7     -302.81644343      -0.00000562     0.24D-04     0.38D-04     6     0       4.25     33.38    diag
   8     -302.81644411      -0.00000067     0.81D-05     0.14D-04     7     0       4.10     37.48    diag
   9     -302.81644418      -0.00000007     0.29D-05     0.44D-05     8     0       4.07     41.55    diag
  10     -302.81644419      -0.00000001     0.10D-05     0.17D-05     9     0       4.19     45.74    diag/orth
  11     -302.81644419      -0.00000000     0.40D-06     0.49D-06     9     0       4.15     49.89    diag
  12     -302.81644419      -0.00000000     0.11D-06     0.13D-06     0     0       4.29     54.18    diag

 Final occupancy:  16   4

 !RHF STATE 1.1 Energy               -302.816444192750
  RHF One-electron energy            -781.095832604859
  RHF Two-electron energy             293.822313118839
  RHF Kinetic energy                  302.413770008437
  RHF Nuclear energy                  184.457075293270
  RHF Virial quotient                  -1.001331533892

 !RHF STATE 1.1 Dipole moment           0.12925566     0.00000000    -0.26164885
 Dipole moment /Debye                   0.32853512     0.00000000    -0.66504504

 Orbital energies:

           1.1          2.1          3.1          4.1          5.1          6.1          7.1          8.1          9.1         10.1
    -20.623024   -20.618727   -20.553281   -11.440740   -11.293795    -1.515478    -1.409416    -1.372743    -0.992062    -0.836876

          11.1         12.1         13.1         14.1         15.1         16.1         17.1         18.1
     -0.754174    -0.721490    -0.635037    -0.616626    -0.548031    -0.482917     0.046043     0.051195

           1.2          2.2          3.2          4.2          5.2          6.2
     -0.704756    -0.612959    -0.511559    -0.481899     0.064164     0.092576


 HOMO      4.2    -0.481899 =     -13.1131eV
 LUMO     17.1     0.046043 =       1.2529eV
 LUMO-HOMO         0.527942 =      14.3660eV

 Orbitals saved in record  2100.2


 **********************************************************************************************************************************
 DATASETS  * FILE   NREC   LENGTH (MB)   RECORD NAMES
              1      19     2827.51       500      610      700      900      950      970     1000      129      960     1100   
                                          VAR    BASINP    GEOM    SYMINP    ZMAT    AOBASIS   BASIS     P2S    ABASIS      S 
                                         1400     1410     1200     1210     1080     1600     1650     1300     1700   
                                           T        V       H0       H01     AOSYM     SMH    MOLCAS    ERIS     OPER   

              2       6       15.21       500      610      700     1000      520     2100   
                                          VAR    BASINP    GEOM     BASIS   MCVARS     RHF  

 PROGRAMS   *        TOTAL    HF-SCF       INT      FILE
 CPU TIMES  *       131.44     54.22     77.00      0.01
 REAL TIME  *       159.95 SEC
 DISK USED  *        11.26 GB
 **********************************************************************************************************************************


 PROGRAM * CCSD (Closed-shell coupled cluster)     Authors: C. Hampel, H.-J. Werner, 1991, M. Deegan, P.J. Knowles, 1992

                                  CCSD-F12 implementation by  H.-J. Werner, 2007

                   Density fitting integral evaluation by F.R. Manby, 2003,2007, G. Knizia, 2010


 Basis set VTZ-F12/JKFIT generated.      Number of basis functions:   704 
 Basis set CC-PVTZ-F12/OPTRI generated.  Number of basis functions:   539 
 Basis set VTZ-F12/MP2FIT generated.     Number of basis functions:   714 

 Convergence thresholds:  THRVAR = 1.00D-12  THRDEN = 1.00D-08

 CCSD(T)     terms to be evaluated (factor= 1.000)


 Number of core orbitals:           5 (   5   0 )
 Number of closed-shell orbitals:  15 (  11   4 )
 Number of external orbitals:     317 ( 203 114 )

 Molecular orbitals read from record     2100.2  Type=RHF/CANONICAL  

 MP2-F12 correlation treatment (H.-J. Werner, 2006)
 ==================================================

 Using MP2-F12 with ansatz 3C(FIX)

 Using projected zeroth-order Hamiltonian (+Z)

 FOCKRIB=T FOCKRIC=T FOCKRIP=T CABSP=T CABSA=T CABSK=T CABSF=T GBC=F EBC=F DMAT=T NOFIK=T NOPAO=1 SOLVE=-1  USEPAO=0
 EXCH_A= T EXCH_B= F EXCH_C= F EXCH_P= F

 Geminal basis:    OPTFULL  GEM_TYPE=SLATER  BETA=1.0  NGEM=6

 Optimizing Gaussian exponents for each gem_beta

 Geminal optimization for beta= 1.0000
 Weight function:   m=0, omega= 1.4646

 Augmented Hessian optimization of geminal fit. Trust ratio= 0.40000
 Convergence reached after   2 iterations. Final gradient= 9.01D-16, Step= 4.09D-06, Delta= 1.28D-09

 Alpha:                 0.19532     0.81920     2.85917     9.50073    35.69989   197.79328
 Coeff:                 0.27070     0.30552     0.18297     0.10986     0.06810     0.04224


 Symmetry turned off. Reference energy:       -302.816444192750

 All pairs explicitly correlated. Number of r12-pairs:          120

 Excluding core orbitals from MO domains

 AO(A)-basis ORBITAL           loaded. Number of functions:     337
 RI(R)-basis CC-PVTZ-F12/OPTRI loaded. Number of functions:     539
 DF-basis VTZ-F12/JKFIT        loaded. Number of functions:     704

 Screening thresholds:   THRAO=  1.00D-10  THRMO=  1.00D-10  THRPROD=  1.00D-10
                         THRSW=  1.00D-07  THROV=  1.00D-12  THRAOF12= 1.00D-08

 CPU time for Fock operators                     23.57 sec

 Construction of ABS:
 Smallest eigenvalue of S          3.10E-04  (threshold= 1.00E-08)
 Ratio eigmin/eigmax               3.61E-05  (threshold= 1.00E-09)
 Smallest eigenvalue of S kept     3.10E-04  (threshold= 3.10E-04, 0 functions deleted, 539 kept)

 Construction of CABS:
 Smallest eigenvalue of S          3.67E-07  (threshold= 1.00E-08)
 Ratio eigmin/eigmax               3.67E-07  (threshold= 1.00E-09)
 Smallest eigenvalue of S kept     3.67E-07  (threshold= 3.67E-07, 0 functions deleted, 539 kept)

 CPU time for CABS singles                        0.22 sec

 CABS-singles contribution of  -0.00286334 patched into reference energy.
 New reference energy        -302.81930754

 AO(A)-basis ORBITAL           loaded. Number of functions:     337
 RI(R)-basis CC-PVTZ-F12/OPTRI loaded. Number of functions:     539
 DF-basis VTZ-F12/MP2FIT       loaded. Number of functions:     714

 Screening thresholds:   THRAO=  1.00D-10  THRMO=  1.00D-10  THRPROD=  1.00D-10
                         THRSW=  1.00D-07  THROV=  1.00D-12  THRAOF12= 1.00D-08

 CPU time for 3-index integral evaluation        17.25 sec
 CPU time for first  half transformation          2.18 sec (14950.3 MFLOP/sec)
 CPU time for second half transformation          0.14 sec ( 7218.5 MFLOP/sec)
 CPU time for sorting                             0.27 sec
 CPU time for fitting                             0.34 sec (42103.2 MFLOP/sec)
 CPU time for tilde quantities                    0.44 sec (43552.8 MFLOP/sec)
 CPU time for assembly                            7.12 sec (44641.7 MFLOP/sec)
 CPU time for tranop_f12                         10.70 sec (39894.8 MFLOP/sec)
 CPU time for f12 integrals (total)              56.49 sec, Elapsed time:     63.87 sec
 CPU time for f12 matrices (total)                4.99 sec, Elapsed time:      5.48 sec

 Diagonal F12 approximation with fixed coefficients:  TSING= 0.500,  TTRIP= 0.250 (scaled by -1/beta)

 DF-MP2-F12 energy corrections:
 ==============================
 Approx.                                    Singlet             Triplet             Total
 DF-MP2-F12/3*C(DX,FIX)                -0.091631948601     -0.011417584101     -0.103049532701
 DF-MP2-F12/3*C(FIX)                   -0.085395777585     -0.010462149292     -0.095857926877
 DF-MP2-F12/3C(FIX)                    -0.085318390063     -0.010893831949     -0.096212222012

 DF-MP2-F12 correlation energies:
 ================================
 Approx.                                    Singlet             Triplet             Ecorr            Total Energy
 DF-MP2                                -0.666423247272     -0.406747666090     -1.073170913363   -303.892478448803
 DF-MP2-F12/3*C(DX,FIX)                -0.758055195873     -0.418165250191     -1.176220446064   -303.995527981504
 DF-MP2-F12/3*C(FIX)                   -0.751819024857     -0.417209815383     -1.169028840240   -303.988336375680
 DF-MP2-F12/3C(FIX)                    -0.751741637335     -0.417641498039     -1.169383135374   -303.988690670814

 SCS-DF-MP2 energies (F_SING= 1.20000  F_TRIP= 0.62222  F_PARALLEL= 0.33333):
 ============================================================================
 SCS-DF-MP2                            -1.052795333405   -303.872102868845
 SCS-DF-MP2-F12/3*C(DX,FIX)            -1.169857946278   -303.989165481718
 SCS-DF-MP2-F12/3*C(FIX)               -1.161780048289   -303.981087583729
 SCS-DF-MP2-F12/3C(FIX)                -1.161955785804   -303.981263321244

 Symmetry restored.
 Symmetry transformation completed.

 Number of N-1 electron functions:              15
 Number of N-2 electron functions:             120
 Number of singly external CSFs:              2689
 Number of doubly external CSFs:           5751916
 Total number of CSFs:                     5754606

 Length of J-op  integral file:               1.48 GB
 Length of K-op  integral file:               1.64 GB
 Length of 3-ext integral record:             0.00 MB

 Memory could be reduced to 295.82 Mwords without degradation in triples

 Integral transformation finished. Total CPU: 101.65 sec, npass=  1  Memory used:  96.37 MW

 Reference energy:                   -302.81930754

 Adding F12 terms to K(Cij), methodcc=4,  factor= 1.0

 ITER.      SQ.NORM     CORR.ENERGY   TOTAL ENERGY   ENERGY CHANGE        DEN1      VAR(S)    VAR(P)  DIIS     TIME  TIME/IT
   1      1.25535666    -1.06801686  -303.88732440     0.00525941     0.03537720  0.65D-02  0.52D-02  1  1   225.63    38.82
   2      1.27258738    -1.06615790  -303.88546544     0.00185896    -0.02326938  0.99D-04  0.66D-03  2  2   267.00    40.90
   3      1.27877761    -1.06651008  -303.88581761    -0.00035217    -0.00293151  0.14D-03  0.39D-04  3  3   305.31    40.62
   4      1.28223336    -1.06642017  -303.88572771     0.00008991    -0.00191012  0.11D-04  0.48D-05  4  4   344.18    40.58
   5      1.28332727    -1.06641083  -303.88571836     0.00000934    -0.00034600  0.18D-05  0.46D-06  5  5   382.66    40.52
   6      1.28362905    -1.06638471  -303.88569225     0.00002611    -0.00001369  0.13D-06  0.50D-07  6  6   421.18    40.50
   7      1.28368845    -1.06638009  -303.88568762     0.00000462    -0.00000945  0.12D-07  0.72D-08  6  1   461.35    40.74
   8      1.28369120    -1.06637988  -303.88568741     0.00000021     0.00000221  0.28D-08  0.94D-09  6  3   500.33    40.75
   9      1.28369797    -1.06637909  -303.88568663     0.00000079    -0.00000274  0.43D-09  0.13D-09  6  2   543.60    41.23
  10      1.28369726    -1.06637923  -303.88568677    -0.00000014     0.00000056  0.86D-10  0.23D-10  6  5   583.37    41.28
  11      1.28369782    -1.06637921  -303.88568675     0.00000002    -0.00000008  0.11D-10  0.45D-11  6  4   622.13    41.22
  12      1.28369775    -1.06637922  -303.88568676    -0.00000001     0.00000002  0.17D-11  0.64D-12  6  6   664.16    41.44
  13      1.28369772    -1.06637923  -303.88568677    -0.00000001     0.00000000  0.26D-12  0.13D-12  6  1   706.63    41.68
  14      1.28369768    -1.06637923  -303.88568677     0.00000000    -0.00000000  0.47D-13  0.19D-13  6  3   746.86    41.72

 Norm of t1 vector:      0.10716689      S-energy:    -0.00000014      T1 diagnostic:  0.01383519
                                                                       D1 diagnostic:  0.05435224
                                                                       D2 diagnostic:  0.15116722 (external, symmetry=2)


 Total CPU time for triples:   1567.79 sec


 RESULTS
 =======

  Reference energy                   -302.816444192750
  F12 singles correction               -0.002863342690

 F12 singles corrections added to reference energy

  New reference energy               -302.819307535440

  F12a singlet correction              -0.084552893152
  F12a triplet correction              -0.010432536310
  F12a total correction                -0.094985429461

 F12a corrections for ansatz F12/3C(FIX) added to CCSD energy

  CCSD-F12a singlet pair energy        -0.789844207412
  CCSD-F12a triplet pair energy        -0.371520312354
  CCSD-F12a correlation energy         -1.161364660716

  Triples (T) contribution             -0.045849931547
  Total correlation energy             -1.207214592263

  CCSD-F12a total energy             -303.980672196156
  CCSD[T]-F12a energy                -304.028762172047
  CCSD-T-F12a energy                 -304.025644478418
 !CCSD(T)-F12a total energy          -304.026522127703

 Timing summary (sec):

 STEP                 CPU(USER)    SYS     CPU(TOT)    WALL
 Transformation        102.02      4.76    106.78    106.78
 CCSD iterations       559.32     25.01    584.33    584.81
 Triples              1567.79     33.94   1601.73   1601.72
 MP2-F12                85.96      8.63     94.59     95.53

 Program statistics:

 Available memory in ccsd:               999998484
 Min. memory needed in ccsd:              14231059
 Max. memory used in ccsd:                19502353
 Max. memory used in cckext:              20158159 (14 integral passes)



 **********************************************************************************************************************************
 DATASETS  * FILE   NREC   LENGTH (MB)   RECORD NAMES
              1      20     3832.49       500      610      700      900      950      970     1000      129      960     1100   
                                          VAR    BASINP    GEOM    SYMINP    ZMAT    AOBASIS   BASIS     P2S    ABASIS      S 
                                         1400     1410     1200     1210     1080     1600     1650     1300     1700     1380   
                                           T        V       H0       H01     AOSYM     SMH    MOLCAS    ERIS     OPER     JKOP   

              2       8       15.92       500      610      700     1000      520     2100     7360     7350   
                                          VAR    BASINP    GEOM     BASIS   MCVARS     RHF    F12ABS    EF12   

 PROGRAMS   *        TOTAL   CCSD(T)    HF-SCF       INT      FILE
 CPU TIMES  *      2446.59   2315.15     54.22     77.00      0.01
 REAL TIME  *      2549.45 SEC
 DISK USED  *        11.26 GB
 **********************************************************************************************************************************


 PROGRAM * OPT (Geometry optimization)     Authors: F. Eckert and H.-J. Werner


 BFGS update of hessian

 *** Long output written to logfile /media/storage_4_240T/ddi/HCO3CH3/EE/vtzf12/ccf12/of/hco3ch3.log ***


 Geometry optimization using default procedure for command CCSD(T)-F12A

 Geometry written to block  1 of record 700
 Waited for other processes for 375.62 seconds

 Making model hessian for Z-matrix coordinates

 Entering Rational Function Geometry Optimization

 ITER.   ENERGY(OLD)    ENERGY(NEW)      DE          GRADMAX     GRADNORM    GRADRMS     STEPMAX     STEPLEN     STEPRMS   CPU-time
   1  -304.02652213  -304.02663193    -0.00010980  0.00783491  0.01246022  0.00333013  0.00750348  0.01566377  0.00111884  10559.89
 Waited for other processes for  89.18 seconds
   2  -304.02663193  -304.02664591    -0.00001398  0.00232949  0.00358038  0.00095690  0.00404562  0.00747531  0.00053395  20705.62
 Waited for other processes for  26.04 seconds
   3  -304.02664591  -304.02664701    -0.00000110  0.00088617  0.00114089  0.00030492  0.00102045  0.00195606  0.00013972  30845.83
 Waited for other processes for 369.49 seconds
   4  -304.02664701  -304.02664715    -0.00000013  0.00040573  0.00045789  0.00012238  0.00049453  0.00079354  0.00005668  41178.14
 Waited for other processes for  31.17 seconds
   5  -304.02664715  -304.02664716    -0.00000001  0.00003655  0.00005345  0.00001428  0.00004680  0.00008753  0.00000625  51235.50

 END OF GEOMETRY OPTIMIZATION.

 Optimized variables
 B1=                  1.20464776 ANG
 B2=                  1.34054660 ANG
 A1=                125.13442462 DEGREE
 B3=                  0.96368514 ANG
 A2=                105.67498728 DEGREE
 B4=                  1.32793037 ANG
 A3=                126.39713878 DEGREE
 B5=                  1.43540051 ANG
 A4=                113.67195245 DEGREE
 B6=                  1.08494227 ANG
 A5=                105.26790661 DEGREE
 B7=                  1.08800590 ANG
 A6=                110.19625900 DEGREE
 D1=                 60.44154676 DEGREE

 **********************************************************************************************************************************

 Geometry written to block  1 of record 700

 Current geometry (xyz format, in Angstrom)

    9
 CCSD(T)-F12A/VTZ-F12  ENERGY=-304.02664716
 O         -1.2970721446        0.0000000000        0.4153316212
 C         -0.0926272641        0.0000000000        0.4374394958
 O          0.6586034266        0.0000000000        1.5477176810
 H          0.0360441564        0.0000000000        2.2833187954
 O          0.7148218992        0.0000000000       -0.6168018922
 C          0.0215710942        0.0000000000       -1.8736940642
 H          0.8000736882        0.0000000000       -2.6293616175
 H         -0.6009221286        0.8882158745       -1.9593186978
 H         -0.6009221286       -0.8882158745       -1.9593186978

 **********************************************************************************************************************************


 **********************************************************************************************************************************
 DATASETS  * FILE   NREC   LENGTH (MB)   RECORD NAMES
              1      20     4215.09       500      610      700      900      950      970     1000      129      960     1100   
                                          VAR    BASINP    GEOM    SYMINP    ZMAT    AOBASIS   BASIS     P2S    ABASIS      S 
                                         1400     1410     1200     1210     1080     1600     1650     1300     1700     1380   
                                           T        V       H0       H01     AOSYM     SMH    MOLCAS    ERIS     OPER     JKOP   

              2       9       15.92       500      610      700     1000      520     2100     7360     7350     5600   
                                          VAR    BASINP    GEOM     BASIS   MCVARS     RHF    F12ABS    EF12     GINFO   

 PROGRAMS   *        TOTAL      OPTG   CCSD(T)    HF-SCF       INT      FILE
 CPU TIMES  *     53682.09  51235.50   2315.15     54.22     77.00      0.01
 REAL TIME  *     55789.13 SEC
 DISK USED  *        11.88 GB
 SF USED    *         0.00 MB
 **********************************************************************************************************************************


 PROGRAM * HESSIAN

 Computing numerical hessian using default procedure for command CCSD(T)-F12A

 Symmetry elements for unique displacements: Y  

 Using AUTO symmetry option

 Running default procedure: HF-SCF000  CCSD(T)-F12A


 Numerically approximating hessian using central energy differences

 Task list generated. Total number of displacements:    388

 Waited for other processes for 313.08 seconds
 All 388 tasks completed.  CPU= 173447.51 sec, Elapsed= 173443.75 sec.

 CCSD(T)-F12A hessian saved to record  5300.2

 PROGRAM * FREQUENCIES (Calculation of harmonic vibrational spectra for CCSD(T)-F12A)


 Permanent Dipole Moment [debye]
   1-  3    0.000000    0.000000    0.000000

 Dipole Moment Norm    0.0000000 [debye]

 Dipole Moment Derivatives [debye/ang]
              1             2             3             4             5             6             7             8
    1     0.0000000     0.0000000     0.0000000     0.0000000     0.0000000     0.0000000     0.0000000     0.0000000
    2     0.0000000     0.0000000     0.0000000     0.0000000     0.0000000     0.0000000     0.0000000     0.0000000
    3     0.0000000     0.0000000     0.0000000     0.0000000     0.0000000     0.0000000     0.0000000     0.0000000
              9            10            11            12            13            14            15            16
    1     0.0000000     0.0000000     0.0000000     0.0000000     0.0000000     0.0000000     0.0000000     0.0000000
    2     0.0000000     0.0000000     0.0000000     0.0000000     0.0000000     0.0000000     0.0000000     0.0000000
    3     0.0000000     0.0000000     0.0000000     0.0000000     0.0000000     0.0000000     0.0000000     0.0000000
             17            18            19            20            21            22            23            24
    1     0.0000000     0.0000000     0.0000000     0.0000000     0.0000000     0.0000000     0.0000000     0.0000000
    2     0.0000000     0.0000000     0.0000000     0.0000000     0.0000000     0.0000000     0.0000000     0.0000000
    3     0.0000000     0.0000000     0.0000000     0.0000000     0.0000000     0.0000000     0.0000000     0.0000000
             25            26            27
    1     0.0000000     0.0000000     0.0000000
    2     0.0000000     0.0000000     0.0000000
    3     0.0000000     0.0000000     0.0000000

 Projecting out rotations and translations

   Low Vibration      Wavenumber
        Nr             [1/cm] 
        1                0.00
        2                0.00
        3                0.00
        4                0.00
        5                0.00
        6                0.00

     Vibration        Wavenumber
        Nr             [1/cm] 
        1              152.74
        2              182.48
        3              305.63
        4              530.53
        5              556.01
        6              672.63
        7              808.10
        8              923.66
        9             1111.77
       10             1190.99
       11             1229.63
       12             1234.49
       13             1420.79
       14             1492.93
       15             1499.39
       16             1509.70
       17             1822.38
       18             3066.69
       19             3151.33
       20             3182.87
       21             3819.45

 FREQUENCIES * CALCULATION OF NORMAL MODES FOR CCSD(T)-F12A


 Atomic Coordinates

  Nr  Atom  Charge       X              Y              Z

   1   O1    8.00   -2.451111117    0.000000000    0.784863015
   2   C1    6.00   -0.175040161    0.000000000    0.826640843
   3   O2    8.00    1.244580101    0.000000000    2.924762535
   4   H1    1.00    0.068113584    0.000000000    4.314847179
   5   O3    8.00    1.350817617    0.000000000   -1.165586649
   6   C2    6.00    0.040763460    0.000000000   -3.540768623
   7   H2    1.00    1.511920150    0.000000000   -4.968773340
   8   H3    1.00   -1.135578245    1.678484742   -3.702575730
   9   H4    1.00   -1.135578245   -1.678484742   -3.702575730

 Gradient norm at reference geometry: 0.57107D-04

 Normal Modes

                              1 A``       2 A``       3 A`        4 A`        5 A``
 Wavenumbers [cm-1]          152.74      182.48      305.63      530.53      556.01
 Intensities [km/mol]          0.00        0.00        0.00        0.00        0.00
 Intensities [relative]        0.00        0.00        0.00        0.00        0.00
           O1X1             0.00000    -0.00000    -0.06123     0.07019    -0.00000
           O1Y1            -0.06660     0.00626    -0.00000    -0.00000    -0.01083
           O1Z1            -0.00000    -0.00000     0.12391     0.08838     0.00000
           C1X2            -0.00000    -0.00000    -0.05965     0.06817     0.00000
           C1Y2            -0.02567     0.03323    -0.00000    -0.00000    -0.03344
           C1Z2             0.00000    -0.00000     0.01476    -0.00541    -0.00000
           O2X3             0.00000     0.00000     0.04193    -0.08936    -0.00000
           O2Y3             0.06952    -0.08143    -0.00000    -0.00000    -0.05947
           O2Z3             0.00000    -0.00000    -0.04779     0.11099    -0.00000
           H1X4             0.00000     0.00000     0.11624    -0.29743    -0.00000
           H1Y4             0.06753    -0.13212    -0.00000    -0.00000     0.95229
           H1Z4             0.00000     0.00000     0.01440    -0.06097    -0.00000
           O3X5            -0.00000    -0.00000    -0.07239     0.00635     0.00000
           O3Y5            -0.06611     0.15116    -0.00000    -0.00000     0.02895
           O3Z5             0.00000    -0.00000     0.00362    -0.07930     0.00000
           C2X6            -0.00000    -0.00000     0.12607    -0.02281     0.00000
           C2Y6             0.07555    -0.08638     0.00000     0.00000     0.00721
           C2Z6             0.00000    -0.00000    -0.09093    -0.12061     0.00000
           H2X7            -0.00000    -0.00000     0.25513    -0.00792    -0.00000
           H2Y7            -0.34902    -0.45491    -0.00000    -0.00000     0.00374
           H2Z7             0.00000    -0.00000     0.04039    -0.10594    -0.00000
           H3X8             0.39610     0.16843     0.14645    -0.01563    -0.00089
           H3Y8             0.34519     0.00686     0.00462     0.00388     0.00625
           H3Z8            -0.10358    -0.26506    -0.20673    -0.11906    -0.00593
           H4X9            -0.39610    -0.16843     0.14645    -0.01563     0.00089
           H4Y9             0.34519     0.00686    -0.00462    -0.00388     0.00625
           H4Z9             0.10358     0.26506    -0.20673    -0.11906     0.00593

                              6 A`        7 A``       8 A`        9 A`       10 A``
 Wavenumbers [cm-1]          672.63      808.10      923.66     1111.77     1190.99
 Intensities [km/mol]          0.00        0.00        0.00        0.00        0.00
 Intensities [relative]        0.00        0.00        0.00        0.00        0.00
           O1X1            -0.01947     0.00000    -0.10966     0.05500     0.00000
           O1Y1            -0.00000    -0.07701     0.00000    -0.00000     0.00269
           O1Z1             0.12058    -0.00000     0.00409    -0.00133     0.00000
           C1X2            -0.00923     0.00000    -0.07139     0.02391     0.00000
           C1Y2            -0.00000     0.25574     0.00000     0.00000    -0.00273
           C1Z2            -0.07641     0.00000     0.02844     0.05104    -0.00000
           O2X3            -0.08483     0.00000     0.04095    -0.05210     0.00000
           O2Y3            -0.00000    -0.05977    -0.00000     0.00000    -0.00024
           O2Z3            -0.11297     0.00000     0.05973    -0.08910    -0.00000
           H1X4            -0.14147     0.00000     0.19854     0.08383    -0.00000
           H1Y4            -0.00000     0.06266     0.00000     0.00000    -0.01334
           H1Z4            -0.16221     0.00000     0.19139     0.01607    -0.00000
           O3X5             0.10726    -0.00000     0.14412     0.04392    -0.00000
           O3Y5            -0.00000    -0.05836     0.00000     0.00000     0.05549
           O3Z5            -0.01197    -0.00000    -0.00950     0.15256     0.00000
           C2X6             0.02501    -0.00000    -0.02269    -0.09438     0.00000
           C2Y6             0.00000    -0.00484    -0.00000    -0.00000    -0.12136
           C2Z6             0.07258    -0.00000    -0.10321    -0.11407     0.00000
           H2X7            -0.09858    -0.00000    -0.17455     0.08478    -0.00000
           H2Y7            -0.00000     0.02789     0.00000     0.00000     0.26966
           H2Z7            -0.05244    -0.00000    -0.25936     0.07185    -0.00000
           H3X8             0.00251     0.01598    -0.05029    -0.03625     0.32507
           H3Y8            -0.00620     0.00953    -0.00609     0.02975     0.15081
           H3Z8             0.16468     0.03828     0.04810    -0.16168     0.46801
           H4X9             0.00251    -0.01598    -0.05029    -0.03625    -0.32507
           H4Y9             0.00620     0.00953     0.00609    -0.02975     0.15081
           H4Z9             0.16468    -0.03828     0.04810    -0.16168    -0.46801

                             11 A`       12 A`       13 A`       14 A`       15 A``
 Wavenumbers [cm-1]         1229.63     1234.49     1420.79     1492.93     1499.39
 Intensities [km/mol]          0.00        0.00        0.00        0.00        0.00
 Intensities [relative]        0.00        0.00        0.00        0.00        0.00
           O1X1            -0.00489     0.06790    -0.02283    -0.03009     0.00000
           O1Y1             0.00000    -0.00000     0.00000     0.00000     0.00081
           O1Z1             0.00717    -0.00468    -0.02364    -0.01186    -0.00000
           C1X2            -0.01329    -0.00105     0.00234     0.02393     0.00000
           C1Y2            -0.00000    -0.00000    -0.00000    -0.00000    -0.00205
           C1Z2             0.03320     0.10103     0.18855     0.11594     0.00000
           O2X3            -0.04266    -0.09135     0.01910    -0.00052     0.00000
           O2Y3             0.00000    -0.00000     0.00000    -0.00000     0.00043
           O2Z3            -0.00206    -0.04497    -0.04966    -0.02895    -0.00000
           H1X4             0.28407     0.43184    -0.34545    -0.11738    -0.00000
           H1Y4            -0.00000    -0.00000     0.00000    -0.00000     0.00144
           H1Z4             0.25976     0.37169    -0.33141    -0.11694    -0.00000
           O3X5             0.06547    -0.04176     0.02315     0.00948    -0.00000
           O3Y5             0.00000    -0.00000     0.00000     0.00000    -0.01119
           O3Z5            -0.09635    -0.04546    -0.03746    -0.05742     0.00000
           C2X6            -0.06866     0.07502     0.02110    -0.01587    -0.00000
           C2Y6            -0.00000     0.00000     0.00000     0.00000    -0.05473
           C2Z6             0.08602    -0.00690     0.04602    -0.07546    -0.00000
           H2X7             0.24232    -0.19652    -0.21488     0.40394    -0.00000
           H2Y7             0.00000     0.00000     0.00000    -0.00000     0.70796
           H2Z7             0.39846    -0.28940    -0.21051     0.36839    -0.00000
           H3X8             0.08243    -0.04056    -0.01352    -0.02361     0.19180
           H3Y8             0.06989    -0.06046    -0.04358     0.03708     0.06223
           H3Z8            -0.31485     0.15326    -0.24665     0.41274    -0.43127
           H4X9             0.08243    -0.04056    -0.01352    -0.02361    -0.19180
           H4Y9            -0.06989     0.06046     0.04358    -0.03708     0.06223
           H4Z9            -0.31485     0.15326    -0.24665     0.41274     0.43127

                             16 A`       17 A`       18 A`       19 A``      20 A` 
 Wavenumbers [cm-1]         1509.70     1822.38     3066.69     3151.33     3182.87
 Intensities [km/mol]          0.00        0.00        0.00        0.00        0.00
 Intensities [relative]        0.00        0.00        0.00        0.00        0.00
           O1X1             0.00338    -0.13444    -0.00090    -0.00000     0.00044
           O1Y1            -0.00000    -0.00000     0.00000     0.00008    -0.00000
           O1Z1            -0.00363    -0.00184    -0.00001    -0.00000     0.00019
           C1X2            -0.00044     0.23286     0.00230    -0.00000    -0.00110
           C1Y2            -0.00000     0.00000    -0.00000     0.00024     0.00000
           C1Z2             0.01633    -0.00670    -0.00179     0.00000    -0.00082
           O2X3            -0.00099    -0.02704    -0.00017    -0.00000     0.00022
           O2Y3            -0.00000    -0.00000     0.00000    -0.00012     0.00000
           O2Z3            -0.00447    -0.01031     0.00021    -0.00000     0.00004
           H1X4            -0.01296     0.11713     0.00014    -0.00000    -0.00073
           H1Y4            -0.00000     0.00000    -0.00000    -0.00030    -0.00000
           H1Z4            -0.01362     0.09920     0.00121    -0.00000     0.00007
           O3X5            -0.01526    -0.02318    -0.00006     0.00000     0.00024
           O3Y5             0.00000    -0.00000    -0.00000     0.00033     0.00000
           O3Z5            -0.00183     0.01430     0.00183     0.00000    -0.00017
           C2X6            -0.05520     0.00598     0.02931     0.00000    -0.07806
           C2Y6             0.00000     0.00000    -0.00000    -0.09038    -0.00000
           C2Z6            -0.00569     0.00727     0.03234    -0.00000     0.04512
           H2X7            -0.17666    -0.05021     0.33112    -0.00000     0.60985
           H2Y7            -0.00000    -0.00000    -0.00000    -0.01738    -0.00000
           H2Z7            -0.15603    -0.05216    -0.31591     0.00000    -0.58095
           H3X8             0.52813     0.00999    -0.34492    -0.38812     0.15966
           H3Y8             0.39626    -0.01029     0.50927     0.54320    -0.25850
           H3Z8             0.10033    -0.04401    -0.04060    -0.04028     0.02619
           H4X9             0.52813     0.00999    -0.34492     0.38812     0.15966
           H4Y9            -0.39626     0.01029    -0.50927     0.54320     0.25850
           H4Z9             0.10033    -0.04401    -0.04060     0.04028     0.02619

                             21 A` 
 Wavenumbers [cm-1]         3819.45
 Intensities [km/mol]          0.00
 Intensities [relative]        0.00
           O1X1             0.00071
           O1Y1            -0.00000
           O1Z1             0.00044
           C1X2             0.00160
           C1Y2             0.00000
           C1Z2            -0.00208
           O2X3             0.03636
           O2Y3            -0.00000
           O2Z3            -0.04731
           H1X4            -0.60236
           H1Y4             0.00000
           H1Z4             0.75682
           O3X5            -0.00029
           O3Y5            -0.00000
           O3Z5             0.00075
           C2X6            -0.00002
           C2Y6            -0.00000
           C2Z6            -0.00005
           H2X7            -0.00061
           H2Y7            -0.00000
           H2Z7             0.00059
           H3X8             0.00017
           H3Y8            -0.00015
           H3Z8            -0.00009
           H4X9             0.00017
           H4Y9             0.00015
           H4Z9            -0.00009


 Normal Modes of low/zero frequencies

                                  1           2           3           4           5
 Wavenumbers [cm-1]            0.00        0.00        0.00        0.00        0.00
 Intensities [km/mol]          0.00        0.00        0.00        0.00        0.00
 Intensities [relative]        0.00        0.00        0.00        0.00        0.00
           O1X1            -0.00000     0.11945     0.00000    -0.00000    -0.00000
           O1Y1             0.12814     0.00000     0.17878     0.01821    -0.01190
           O1Z1            -0.08928     0.02909     0.09117    -0.03809     0.00416
           C1X2            -0.00109     0.11994     0.00077    -0.00079     0.00058
           C1Y2             0.04989     0.00000     0.06301     0.04891     0.07858
           C1Z2            -0.02983     0.00208     0.04902     0.00474    -0.02737
           O2X3            -0.05589     0.14484     0.03963    -0.04027     0.02965
           O2Y3             0.05876     0.00000    -0.00772     0.00926     0.18628
           O2Z3             0.00725    -0.01477     0.02272     0.03145    -0.04704
           H1X4            -0.09220     0.16134     0.06538    -0.06642     0.04890
           H1Y4             0.13850     0.00000     0.05313    -0.04667     0.17444
           H1Z4            -0.02348    -0.00081     0.04451     0.00931    -0.03074
           O3X5             0.05094     0.09630    -0.03613     0.03670    -0.02702
           O3Y5            -0.05880    -0.00000    -0.01605     0.12682     0.08925
           O3Z5             0.01002    -0.01603     0.02076     0.03345    -0.04851
           C2X6             0.11298     0.06811    -0.08012     0.08139    -0.05993
           C2Y6            -0.07921    -0.00000     0.04890     0.17587    -0.02100
           C2Z6            -0.02420    -0.00048     0.04502     0.00880    -0.03036
           H2X7             0.15027     0.05117    -0.10657     0.10826    -0.07971
           H2Y7            -0.17029    -0.00000    -0.02697     0.23700     0.00149
           H2Z7             0.01423    -0.01794     0.01777     0.03648    -0.05074
           H3X8             0.17577     0.06619     0.00228     0.06092    -0.12813
           H3Y8            -0.04267    -0.00000     0.10863     0.16398    -0.07123
           H3Z8            -0.10164     0.01348     0.06561     0.03429    -0.05559
           H4X9             0.05864     0.06619    -0.16851     0.10795     0.00380
           H4Y9            -0.04267    -0.00000     0.10863     0.16398    -0.07123
           H4Z9            -0.00820     0.01348     0.06801    -0.06097     0.02747

                                  6
 Wavenumbers [cm-1]            0.00
 Intensities [km/mol]          0.00
 Intensities [relative]        0.00
           O1X1            -0.00000
           O1Y1            -0.05598
           O1Z1             0.07354
           C1X2            -0.00041
           C1Y2             0.00333
           C1Z2             0.09561
           O2X3            -0.02075
           O2Y3             0.07515
           O2Z3             0.10938
           H1X4            -0.03423
           H1Y4             0.06822
           H1Z4             0.09797
           O3X5             0.01892
           O3Y5             0.00915
           O3Z5             0.11041
           C2X6             0.04195
           C2Y6            -0.06451
           C2Z6             0.09771
           H2X7             0.05580
           H2Y7            -0.05062
           H2Z7             0.11197
           H3X8             0.00029
           H3Y8            -0.09752
           H3Z8             0.05809
           H4X9             0.08674
           H4Y9            -0.09752
           H4Z9             0.11451


 Frequencies dumped to record   5400.2

 Zero point energy:  0.06803566 [H]    14932.10 [1/CM]      178.63 [KJ/MOL]
 Frequency information read from record  5400.2

 Recomputing wavefunction at initial geometry


 **********************************************************************************************************************************
 DATASETS  * FILE   NREC   LENGTH (MB)   RECORD NAMES
              1      20     4198.68       500      610      700      900      950      970     1000      129      960     1100   
                                          VAR    BASINP    GEOM    SYMINP    ZMAT    AOBASIS   BASIS     P2S    ABASIS      S 
                                         1400     1410     1200     1210     1080     1600     1650     1300     1700     1380   
                                           T        V       H0       H01     AOSYM     SMH    MOLCAS    ERIS     OPER     JKOP   

              2      12       15.95       500      610      700     1000      520     2100     7360     7350     5600     5300   
                                          VAR    BASINP    GEOM     BASIS   MCVARS     RHF    F12ABS    EF12     GINFO    HESS   
                                         5450     5400   
                                         NMOD     FREQ   

 PROGRAMS   *        TOTAL      FREQ      OPTG   CCSD(T)    HF-SCF       INT      FILE
 CPU TIMES  *    225085.92 171403.82  51235.50   2315.15     54.22     77.00      0.01
 REAL TIME  *    231771.07 SEC
 DISK USED  *        20.17 GB
 SF USED    *         0.00 MB
 **********************************************************************************************************************************

 Dump information in style MOLDEN to molden.dat                                                                      

 Molecular orbitals read from record     2100.2  Type=RHF/CANONICAL (state 1.1)
 Occupation numbers read from record     2100.2  Type=RHF/RHF (state 1.1)
 Orbital energies read from record       2100.2  Type=RHF/CANONICAL (state 1.1)
 Redundancy group numbers read from rec  2100.2  Type=RHF/RHF (state 1.1)

 DUMP ORBITAL  1.1 AS ORBITAL    1  occ=    2.0000  eig=  -20.6221  GROUP=   2
 DUMP ORBITAL  2.1 AS ORBITAL    2  occ=    2.0000  eig=  -20.6180  GROUP=   2
 DUMP ORBITAL  3.1 AS ORBITAL    3  occ=    2.0000  eig=  -20.5508  GROUP=   2
 DUMP ORBITAL  4.1 AS ORBITAL    4  occ=    2.0000  eig=  -11.4383  GROUP=   2
 DUMP ORBITAL  5.1 AS ORBITAL    5  occ=    2.0000  eig=  -11.2942  GROUP=   2
 DUMP ORBITAL  6.1 AS ORBITAL    6  occ=    2.0000  eig=   -1.5183  GROUP=   2
 DUMP ORBITAL  7.1 AS ORBITAL    7  occ=    2.0000  eig=   -1.4115  GROUP=   2
 DUMP ORBITAL  8.1 AS ORBITAL    8  occ=    2.0000  eig=   -1.3732  GROUP=   2
 DUMP ORBITAL  9.1 AS ORBITAL    9  occ=    2.0000  eig=   -0.9931  GROUP=   2
 DUMP ORBITAL 10.1 AS ORBITAL   10  occ=    2.0000  eig=   -0.8381  GROUP=   2
 DUMP ORBITAL 11.1 AS ORBITAL   11  occ=    2.0000  eig=   -0.7565  GROUP=   2
 DUMP ORBITAL 12.1 AS ORBITAL   12  occ=    2.0000  eig=   -0.7211  GROUP=   2
 DUMP ORBITAL  1.2 AS ORBITAL   13  occ=    2.0000  eig=   -0.7064  GROUP=   2
 DUMP ORBITAL 13.1 AS ORBITAL   14  occ=    2.0000  eig=   -0.6351  GROUP=   2
 DUMP ORBITAL 14.1 AS ORBITAL   15  occ=    2.0000  eig=   -0.6171  GROUP=   2
 DUMP ORBITAL  2.2 AS ORBITAL   16  occ=    2.0000  eig=   -0.6134  GROUP=   2
 DUMP ORBITAL 15.1 AS ORBITAL   17  occ=    2.0000  eig=   -0.5474  GROUP=   2
 DUMP ORBITAL  3.2 AS ORBITAL   18  occ=    2.0000  eig=   -0.5114  GROUP=   2
 DUMP ORBITAL 16.1 AS ORBITAL   19  occ=    2.0000  eig=   -0.4820  GROUP=   2
 DUMP ORBITAL  4.2 AS ORBITAL   20  occ=    2.0000  eig=   -0.4813  GROUP=   2

 Total charge:      40.000000
 Frequency information read from record  5400.2

 **********************************************************************************************************************************

 CCSD(T)-F12A/cc-pVTZ-F12 energy=   -304.026647154797

   OPTG(CCSD(T))    CCSD(T)-F12A          HF-SCF
   -304.02664716   -304.02652213   -302.81644419
 **********************************************************************************************************************************
 Molpro calculation terminated
