
 Working directory              : /scratch/koe/tmpdir_671499/molpro.BAS9VGE8oe/
 Global scratch directory       : /scratch/koe/tmpdir_671499/molpro.BAS9VGE8oe/
 Wavefunction directory         : /home/koe/nomodeco_testruns/MOLPRO/sf6/
 Main file repository           : /home/koe/nomodeco_testruns/MOLPRO/sf6/

 id        : liedlgroup

 Nodes     nprocs
 rune01      10
 GA implementation: MPI file
 GA implementation (serial work in mppx): MPI file

 Using customized tuning parameters: mindgm=1; mindgv=20; mindgc=4; mindgr=1; noblas=0; minvec=7
 default implementation of scratch files=sf  


 Variables initialized (1015), CPU time= 0.00 sec
 ***,sf6 harmonic vibrational spectrum
 memory,1000,m
 
 orient,mass
 geometry={
 S
 F1,S,sf
 F2,S,sf,F1,90.0
 F3,S,sf,F2,90.0,F1,90.0
 F4,S,sf,F3,90.0,F1,90.0
 F5,S,sf,F4,90.0,F1,90.0
 F6,S,sf,F5,90.0,F1,180.0
 }
 
 
 sf = 1.5612 ANG
 
 
 mass,iso
 basis=vtz
 hf
 optg
 {freq,analytical,symm=auto, print=0}
 put, molden, sf6.molden
 Commands initialized (818), CPU time= 0.01 sec, 672 directives.
 Default parameters read. Elapsed time= 0.19 sec

 Checking input...
 Passed
1


                                         ***  PROGRAM SYSTEM MOLPRO  ***
                                       Copyright, TTI GmbH Stuttgart, 2015
                                    Version 2022.1 linked Jan 25 2022 12:44:58


 **********************************************************************************************************************************
 LABEL *   sf6 harmonic vibrational spectrum                                             
  64 bit mpp version                                                                     DATE: 29-Sep-22          TIME: 16:07:43  
 **********************************************************************************************************************************

 SHA1:             f3d4322b9bdbeed63a35be676bd653804e8a9433
 **********************************************************************************************************************************

 Memory per process:      1000 MW
 Total memory per node:  10000 MW

 GA preallocation disabled
 GA check disabled

 Variable memory set to 1000.0 MW

 ZCENTRE=MASS

 SETTING SF             =         1.56120000  ANG                             


 Using masses of most abundant isotopes

 **********************************************************************************************************************************
 SETTING BASIS          =    VTZ


 Recomputing integrals since basis changed


 Using spherical harmonics

 Library entry S      S cc-pVTZ              selected for orbital group  1
 Library entry S      P cc-pVTZ              selected for orbital group  1
 Library entry S      D cc-pVTZ              selected for orbital group  1
 Library entry S      F cc-pVTZ              selected for orbital group  1
 Library entry F      S cc-pVTZ              selected for orbital group  2
 Library entry F      P cc-pVTZ              selected for orbital group  2
 Library entry F      D cc-pVTZ              selected for orbital group  2
 Library entry F      F cc-pVTZ              selected for orbital group  2


 PROGRAM * SEWARD (Integral evaluation for generally contracted gaussian basis sets)     Author: Roland Lindh, 1990

 Geometry written to block  1 of record 700

 Orientation using atomic masses  
 Molecule type: Spherical top,     Neighbour degeneracy = 6
 Symmetry elements: X,Y,Z
 Rotational constants:       2.7284945      2.7284945      2.7284945 GHz

 Point group  D2h 



 ATOMIC COORDINATES

 NR  ATOM    CHARGE       X              Y              Z

   1  S      16.00    0.000000000    0.000000000    0.000000000
   2  F1      9.00    0.000000000    0.000000000    2.950240426
   3  F6      9.00    0.000000000    0.000000000   -2.950240426
   4  F2      9.00    2.086135011    2.086135011    0.000000000
   5  F3      9.00   -2.086135011    2.086135011    0.000000000
   6  F4      9.00   -2.086135011   -2.086135011    0.000000000
   7  F5      9.00    2.086135011   -2.086135011    0.000000000

 Bond lengths in Bohr (Angstrom)

 1-2  2.950240426  1-3  2.950240426  1-4  2.950240426  1-5  2.950240426  1-6  2.950240426
     ( 1.561200000)     ( 1.561200000)     ( 1.561200000)     ( 1.561200000)     ( 1.561200000)

 1-7  2.950240426
     ( 1.561200000)

 Bond angles

  2-1-3  180.00000000   2-1-4   90.00000000   2-1-5   90.00000000   2-1-6   90.00000000

  2-1-7   90.00000000   3-1-4   90.00000000   3-1-5   90.00000000   3-1-6   90.00000000

  3-1-7   90.00000000   4-1-5   90.00000000   4-1-6  180.00000000   4-1-7   90.00000000

  5-1-6   90.00000000   5-1-7  180.00000000   6-1-7   90.00000000

 NUCLEAR CHARGE:                   70
 NUMBER OF PRIMITIVE AOS:         346
 NUMBER OF SYMMETRY AOS:          311
 NUMBER OF CONTRACTIONS:          214   (   42Ag  +   33B3u +   33B2u +   25B1g +   29B1u +   19B2g +   19B3g +   14Au  )
 NUMBER OF INNER CORE ORBITALS:     1   (    1Ag  +    0B3u +    0B2u +    0B1g +    0B1u +    0B2g +    0B3g +    0Au  )
 NUMBER OF OUTER CORE ORBITALS:    10   (    3Ag  +    2B3u +    2B2u +    1B1g +    2B1u +    0B2g +    0B3g +    0Au  )
 NUMBER OF VALENCE ORBITALS:       28   (    6Ag  +    5B3u +    5B2u +    3B1g +    4B1u +    2B2g +    2B3g +    1Au  )


 NUCLEAR REPULSION ENERGY  567.00727734


 Eigenvalues of metric

         1 0.232E-02 0.355E-02 0.479E-02 0.176E-01 0.316E-01 0.484E-01 0.516E-01 0.531E-01
         2 0.311E-02 0.750E-02 0.305E-01 0.510E-01 0.512E-01 0.559E-01 0.127E+00 0.216E+00
         3 0.311E-02 0.750E-02 0.305E-01 0.510E-01 0.512E-01 0.559E-01 0.127E+00 0.216E+00
         4 0.355E-02 0.176E-01 0.510E-01 0.531E-01 0.151E+00 0.200E+00 0.341E+00 0.398E+00
         5 0.311E-02 0.750E-02 0.305E-01 0.512E-01 0.559E-01 0.127E+00 0.228E+00 0.329E+00
         6 0.484E-01 0.510E-01 0.721E-01 0.200E+00 0.439E+00 0.473E+00 0.484E+00 0.536E+00
         7 0.484E-01 0.510E-01 0.721E-01 0.200E+00 0.439E+00 0.473E+00 0.484E+00 0.536E+00
         8 0.510E-01 0.216E+00 0.335E+00 0.491E+00 0.501E+00 0.731E+00 0.100E+01 0.100E+01


 Contracted 2-electron integrals neglected if value below      1.0D-11
 AO integral compression algorithm  1   Integral accuracy      1.0D-11

     186.909 MB (compressed) written to integral file ( 47.8%)

     Node minimum: 16.253 MB, node maximum: 22.020 MB


 NUMBER OF SORTED TWO-ELECTRON INTEGRALS:    3401785.     BUFFER LENGTH:  32768
 NUMBER OF SEGMENTS:   1  SEGMENT LENGTH:    3401785      RECORD LENGTH: 524288

 Memory used in sort:       3.96 MW

 SORT1 READ    48934708. AND WROTE     3210660. INTEGRALS IN     10 RECORDS. CPU TIME:     1.56 SEC, REAL TIME:     1.89 SEC
 SORT2 READ    32076270. AND WROTE    33848268. INTEGRALS IN    800 RECORDS. CPU TIME:     0.22 SEC, REAL TIME:     0.24 SEC

 Node minimum:     3355308.  Node maximum:     3411774. integrals

 OPERATOR DM      FOR CENTER  0  COORDINATES:    0.000000    0.000000    0.000000


 **********************************************************************************************************************************
 DATASETS  * FILE   NREC   LENGTH (MB)   RECORD NAMES
              1      18       28.94       500      610      700      900      950      970     1000      129      960     1100   
                                          VAR    BASINP    GEOM    SYMINP    ZMAT    AOBASIS   BASIS     P2S    ABASIS      S 
                                         1400     1410     1200     1210     1080     1600     1650     1700   
                                           T        V       H0       H01     AOSYM     SMH    MOLCAS    OPER   

 PROGRAMS   *        TOTAL       INT
 CPU TIMES  *         2.90      2.77
 REAL TIME  *         4.28 SEC
 DISK USED  *        29.33 MB (local),      841.36 MB (total)
 GA USED    *         0.00 MB       (max)       0.00 MB       (current)
 **********************************************************************************************************************************


 Program * Restricted Hartree-Fock

 Orbital guess generated from atomic densities. Full valence occupancy:   10   7   7   4   6   2   2   1


 Initial occupancy:   9   6   6   4   5   2   2   1

 NELEC=   70   SYM=1   MS2= 0   THRE=1.0D-08   THRD=1.0D-06   THRG=1.0D-06  HFMA2=F  DIIS_START=2   DIIS_MAX=10   DIIS_INCORE=F

 Level shifts:    0.00 (CLOSED)    0.00 (OPEN)    0.30 (GAP_MIN)

 ITER           ETOT              DE          GRAD        DDIFF     DIIS  NEXP   TIME(IT)  TIME(TOT)  DIAG
   1     -994.00921032    -994.00921032     0.00D+00     0.20D+00     0     0       0.00      0.01    start
   2     -994.18869043      -0.17948012     0.22D-01     0.32D-01     1     0       0.02      0.03    diag
   3     -994.29910665      -0.11041621     0.15D-01     0.11D-01     2     0       0.01      0.04    diag
   4     -994.30023702      -0.00113038     0.11D-02     0.17D-02     3     0       0.02      0.06    diag
   5     -994.30038200      -0.00014498     0.38D-03     0.66D-03     4     0       0.00      0.06    diag
   6     -994.30038935      -0.00000735     0.65D-04     0.14D-03     5     0       0.01      0.07    diag
   7     -994.30038945      -0.00000011     0.95D-05     0.14D-04     6     0       0.01      0.08    diag
   8     -994.30038945      -0.00000000     0.14D-05     0.20D-05     7     0       0.00      0.08    fixocc
   9     -994.30038945      -0.00000000     0.21D-06     0.41D-06     8     0       0.01      0.09    diag
  10     -994.30038945      -0.00000000     0.23D-07     0.36D-07     0     0       0.01      0.10    diag/orth

 Final occupancy:   9   6   6   4   5   2   2   1

 !RHF STATE 1.1 Energy               -994.300389453594
  RHF One-electron energy           -2511.113781739507
  RHF Two-electron energy             949.806114945410
  RHF Kinetic energy                  993.417022031964
  RHF Nuclear energy                  567.007277340503
  RHF Virial quotient                  -1.000889221145

 !RHF STATE 1.1 Dipole moment           0.00000000     0.00000000     0.00000000
 Dipole moment /Debye                   0.00000000     0.00000000     0.00000000

 Orbital energies:

           1.1          2.1          3.1          4.1          5.1          6.1          7.1          8.1          9.1         10.1
    -92.454145   -26.379625   -26.379558    -9.386003    -1.836957    -1.653214    -1.092879    -0.828140    -0.733624     0.163621

          11.1
      0.429467

           1.2          2.2          3.2          4.2          5.2          6.2          7.2          8.2
    -26.379605    -7.074603    -1.708016    -0.919337    -0.725222    -0.712861     0.338050     0.440503

           1.3          2.3          3.3          4.3          5.3          6.3          7.3          8.3
    -26.379605    -7.074603    -1.708016    -0.919337    -0.725222    -0.712861     0.338050     0.440503

           1.4          2.4          3.4          4.4          5.4          6.4
    -26.379625    -1.653214    -0.733624    -0.674985     0.719074     1.177150

           1.5          2.5          3.5          4.5          5.5          6.5          7.5
    -26.379605    -7.074603    -1.708016    -0.919337    -0.712861     0.338050     0.440503

           1.6          2.6          3.6          4.6
     -0.828140    -0.674985     0.609709     0.802861

           1.7          2.7          3.7          4.7
     -0.828140    -0.674985     0.609709     0.802861

           1.8          2.8          3.8
     -0.725222     0.991697     1.581485


 HOMO      4.4    -0.674985 =     -18.3673eV
 LUMO     10.1     0.163621 =       4.4524eV
 LUMO-HOMO         0.838606 =      22.8196eV

 Orbitals saved in record  2100.2


 **********************************************************************************************************************************
 DATASETS  * FILE   NREC   LENGTH (MB)   RECORD NAMES
              1      18       28.95       500      610      700      900      950      970     1000      129      960     1100   
                                          VAR    BASINP    GEOM    SYMINP    ZMAT    AOBASIS   BASIS     P2S    ABASIS      S 
                                         1400     1410     1200     1210     1080     1600     1650     1700   
                                           T        V       H0       H01     AOSYM     SMH    MOLCAS    OPER   

              2       4        0.54       700     1000      520     2100   
                                         GEOM     BASIS   MCVARS     RHF  

 PROGRAMS   *        TOTAL    HF-SCF       INT
 CPU TIMES  *         3.00      0.10      2.77
 REAL TIME  *         4.45 SEC
 DISK USED  *        29.99 MB (local),      848.00 MB (total)
 GA USED    *         0.00 MB       (max)       0.00 MB       (current)
 **********************************************************************************************************************************


 PROGRAM * OPT (Geometry optimization)     Authors: F. Eckert and H.-J. Werner


 BFGS update of hessian

 *** Long output written to logfile /home/koe/nomodeco_testruns/MOLPRO/sf6/sf6.log ***


 Geometry optimization using default procedure for command HF-SCF

 Geometry written to block  1 of record 700

 Making model hessian for Z-matrix coordinates

 Entering Rational Function Geometry Optimization

 ITER.   ENERGY(OLD)    ENERGY(NEW)      DE          GRADMAX     GRADNORM    GRADRMS     STEPMAX     STEPLEN     STEPRMS   CPU-time
   1  -994.30038945  -994.30314244    -0.00275298  0.14974023  0.14974023  0.14974023  0.02411595  0.02411595  0.02411595      4.58
   2  -994.30314244  -994.30407536    -0.00093292  0.07758245  0.07758245  0.07758245  0.02591153  0.02591153  0.02591153      9.10
   3  -994.30407536  -994.30408215    -0.00000680  0.00679540  0.00679540  0.00679540  0.00208678  0.00208678  0.00208678     13.76
   4  -994.30408215  -994.30408217    -0.00000001  0.00027381  0.00027381  0.00027381  0.00008083  0.00008083  0.00008083     18.38

 END OF GEOMETRY OPTIMIZATION.

 Optimized variables
 SF=                  1.53578810 ANG

 **********************************************************************************************************************************

 Geometry written to block  1 of record 700

 Recomputing wavefunction for reoriented structure

 Current geometry (xyz format, in Angstrom)

    7
 HF-SCF000/VTZ  ENERGY=-994.30408217
 S          0.0000000000        0.0000000000        0.0000000000
 F          0.0000000000        0.0000000000        1.5357881028
 F          1.0859661819        1.0859661819        0.0000000000
 F         -1.0859661819        1.0859661819        0.0000000000
 F         -1.0859661819       -1.0859661819        0.0000000000
 F          1.0859661819       -1.0859661819        0.0000000000
 F          0.0000000000        0.0000000000       -1.5357881028

 **********************************************************************************************************************************


 **********************************************************************************************************************************
 DATASETS  * FILE   NREC   LENGTH (MB)   RECORD NAMES
              1      18       28.95       500      610      700      900      950      970     1000      129      960     1100   
                                          VAR    BASINP    GEOM    SYMINP    ZMAT    AOBASIS   BASIS     P2S    ABASIS      S 
                                         1400     1410     1200     1210     1080     1600     1650     1700   
                                           T        V       H0       H01     AOSYM     SMH    MOLCAS    OPER   

              2       4        0.54       700     1000      520     2100   
                                         GEOM     BASIS   MCVARS     RHF  

 PROGRAMS   *        TOTAL      OPTG    HF-SCF       INT
 CPU TIMES  *        21.40     18.40      0.10      2.77
 REAL TIME  *        25.54 SEC
 DISK USED  *        29.99 MB (local),      865.24 MB (total)
 SF USED    *         0.01 MB
 GA USED    *         0.00 MB       (max)       0.00 MB       (current)
 **********************************************************************************************************************************


 PROGRAM * HESSIAN

 PROGRAM * MCKINLEY (Hessian of the energy)     Author: A. Bernhardsson, R. Lindh

 Orbitals from record         2100.2

 Number of closed-shell orbitals: 35 (  9  6  6  4  5  2  2  1 )
 Number of occupied orbitals:     35 (  9  6  6  4  5  2  2  1 )

 Number of electrons= 70     Singlet     Space symmetry=1      Wavefunction type: CLOSED          


 McKinley needed     19.28 seconds of CPU time

 Entering CPHF calculation

 CPHF needed 162 iterations for 21 perturbations.  Total CPU time:    2.95 sec


 HF-SCF hessian saved to record  5300.2

 PROGRAM * FREQUENCIES (Calculation of harmonic vibrational spectra for HF-SCF)


 Permanent Dipole Moment [debye]
   1-  3    0.000000    0.000000    0.000000

 Dipole Moment Norm    0.0000000 [debye]

 Dipole Moment Derivatives [debye/ang]
              1             2             3             4             5             6             7             8
    1     0.0000000     0.0000000     0.0000000     0.0000000     0.0000000     0.0000000     0.0000000     0.0000000
    2     0.0000000     0.0000000     0.0000000     0.0000000     0.0000000     0.0000000     0.0000000     0.0000000
    3     0.0000000     0.0000000     0.0000000     0.0000000     0.0000000     0.0000000     0.0000000     0.0000000
              9            10            11            12            13            14            15            16
    1     0.0000000     0.0000000     0.0000000     0.0000000     0.0000000     0.0000000     0.0000000     0.0000000
    2     0.0000000     0.0000000     0.0000000     0.0000000     0.0000000     0.0000000     0.0000000     0.0000000
    3     0.0000000     0.0000000     0.0000000     0.0000000     0.0000000     0.0000000     0.0000000     0.0000000
             17            18            19            20            21
    1     0.0000000     0.0000000     0.0000000     0.0000000     0.0000000
    2     0.0000000     0.0000000     0.0000000     0.0000000     0.0000000
    3     0.0000000     0.0000000     0.0000000     0.0000000     0.0000000

 Projecting out rotations and translations

 Force Constants (Second Derivatives of the Energy) in [a.u.]
                             SX1         SY1         SZ1         F1X2        F1Y2    
           SX1           0.9642233
           SY1           0.0000000   0.9642233
           SZ1           0.0000000  -0.0000000   0.9642233
           F1X2         -0.0933812  -0.0000000   0.0000000   0.1269110
           F1Y2          0.0000000  -0.0933812  -0.0000000   0.0000000   0.1269110
           F1Z2         -0.0000000  -0.0000000  -0.2953492  -0.0000000  -0.0000000
           F2X3         -0.1943652  -0.1009840   0.0000000  -0.0102857  -0.0240280
           F2Y3         -0.1009840  -0.1943652  -0.0000000  -0.0240280  -0.0102857
           F2Z3          0.0000000  -0.0000000  -0.0933813   0.0421782   0.0421782
           F3X4         -0.1943652   0.1009840   0.0000000  -0.0102857   0.0240280
           F3Y4          0.1009840  -0.1943652  -0.0000000   0.0240280  -0.0102857
           F3Z4         -0.0000000   0.0000000  -0.0933813  -0.0421782   0.0421782
           F4X5         -0.1943652  -0.1009840   0.0000000  -0.0102857  -0.0240280
           F4Y5         -0.1009840  -0.1943652   0.0000000  -0.0240280  -0.0102857
           F4Z5         -0.0000000   0.0000000  -0.0933813  -0.0421782  -0.0421782
           F5X6         -0.1943652   0.1009840  -0.0000000  -0.0102857   0.0240280
           F5Y6          0.1009840  -0.1943652   0.0000000   0.0240280  -0.0102857
           F5Z6          0.0000000   0.0000000  -0.0933813   0.0421782  -0.0421782
           F6X7         -0.0933812  -0.0000000  -0.0000000   0.0076129  -0.0000000
           F6Y7         -0.0000000  -0.0933812   0.0000000  -0.0000000   0.0076129
           F6Z7          0.0000000   0.0000000  -0.2953492  -0.0000000  -0.0000000
                             F1Z2        F2X3        F2Y3        F2Z3        F3X4    
           F1Z2          0.4368959
           F2X3          0.0214998   0.2819035
           F2Y3          0.0214998   0.1549925   0.2819035
           F2Z3         -0.0343137  -0.0000000  -0.0000000   0.1269110
           F3X4         -0.0214998  -0.0793408   0.0146219  -0.0000000   0.2819035
           F3Y4          0.0214998  -0.0146219   0.0107135  -0.0000000  -0.1549925
           F3Z4         -0.0343137   0.0000000   0.0000000   0.0137423  -0.0000000
           F4X5         -0.0214998   0.0016605  -0.0059525  -0.0000000   0.0107135
           F4Y5         -0.0214998  -0.0059525   0.0016605   0.0000000  -0.0146219
           F4Z5         -0.0343137   0.0000000   0.0000000   0.0076129   0.0000000
           F5X6          0.0214998   0.0107135  -0.0146219  -0.0000000   0.0016605
           F5Y6         -0.0214998   0.0146219  -0.0793408  -0.0000000   0.0059525
           F5Z6         -0.0343137  -0.0000000   0.0000000   0.0137423   0.0000000
           F6X7         -0.0000000  -0.0102857  -0.0240280  -0.0421782  -0.0102857
           F6Y7          0.0000000  -0.0240280  -0.0102857  -0.0421782   0.0240280
           F6Z7         -0.0042921  -0.0214998  -0.0214998  -0.0343137   0.0214998
                             F3Y4        F3Z4        F4X5        F4Y5        F4Z5    
           F3Y4          0.2819035
           F3Z4          0.0000000   0.1269110
           F4X5          0.0146219  -0.0000000   0.2819035
           F4Y5         -0.0793408   0.0000000   0.1549925   0.2819035
           F4Z5          0.0000000   0.0137423   0.0000000   0.0000000   0.1269110
           F5X6          0.0059525  -0.0000000  -0.0793408   0.0146219  -0.0000000
           F5Y6          0.0016605   0.0000000  -0.0146219   0.0107135   0.0000000
           F5Z6          0.0000000   0.0076129   0.0000000   0.0000000   0.0137423
           F6X7          0.0240280   0.0421782  -0.0102857  -0.0240280   0.0421782
           F6Y7         -0.0102857  -0.0421782  -0.0240280  -0.0102857   0.0421782
           F6Z7         -0.0214998  -0.0343137   0.0214998   0.0214998  -0.0343137
                             F5X6        F5Y6        F5Z6        F6X7        F6Y7    
           F5X6          0.2819035
           F5Y6         -0.1549925   0.2819035
           F5Z6          0.0000000   0.0000000   0.1269110
           F6X7         -0.0102857   0.0240280  -0.0421782   0.1269110
           F6Y7          0.0240280  -0.0102857   0.0421782  -0.0000000   0.1269110
           F6Z7         -0.0214998   0.0214998  -0.0343137   0.0000000  -0.0000000
                             F6Z7    
           F6Z7          0.4368959


 Atomic Masses
   1-  7   31.972070   18.998400   18.998400   18.998400   18.998400   18.998400   18.998400

 Mass weighted Second Derivative Matrix
                             SX1         SY1         SZ1         F1X2        F1Y2    
           SX1           0.0301583
           SY1           0.0000000   0.0301583
           SZ1           0.0000000  -0.0000000   0.0301583
           F1X2         -0.0037889  -0.0000000   0.0000000   0.0066801
           F1Y2          0.0000000  -0.0037889  -0.0000000   0.0000000   0.0066801
           F1Z2         -0.0000000  -0.0000000  -0.0119837  -0.0000000  -0.0000000
           F2X3         -0.0078863  -0.0040974   0.0000000  -0.0005414  -0.0012647
           F2Y3         -0.0040974  -0.0078863  -0.0000000  -0.0012647  -0.0005414
           F2Z3          0.0000000  -0.0000000  -0.0037889   0.0022201   0.0022201
           F3X4         -0.0078863   0.0040974   0.0000000  -0.0005414   0.0012647
           F3Y4          0.0040974  -0.0078863  -0.0000000   0.0012647  -0.0005414
           F3Z4         -0.0000000   0.0000000  -0.0037889  -0.0022201   0.0022201
           F4X5         -0.0078863  -0.0040974   0.0000000  -0.0005414  -0.0012647
           F4Y5         -0.0040974  -0.0078863   0.0000000  -0.0012647  -0.0005414
           F4Z5         -0.0000000   0.0000000  -0.0037889  -0.0022201  -0.0022201
           F5X6         -0.0078863   0.0040974  -0.0000000  -0.0005414   0.0012647
           F5Y6          0.0040974  -0.0078863   0.0000000   0.0012647  -0.0005414
           F5Z6          0.0000000   0.0000000  -0.0037889   0.0022201  -0.0022201
           F6X7         -0.0037889  -0.0000000  -0.0000000   0.0004007  -0.0000000
           F6Y7         -0.0000000  -0.0037889   0.0000000  -0.0000000   0.0004007
           F6Z7          0.0000000   0.0000000  -0.0119837  -0.0000000  -0.0000000
                             F1Z2        F2X3        F2Y3        F2Z3        F3X4    
           F1Z2          0.0229965
           F2X3          0.0011317   0.0148383
           F2Y3          0.0011317   0.0081582   0.0148383
           F2Z3         -0.0018061  -0.0000000  -0.0000000   0.0066801
           F3X4         -0.0011317  -0.0041762   0.0007696  -0.0000000   0.0148383
           F3Y4          0.0011317  -0.0007696   0.0005639  -0.0000000  -0.0081582
           F3Z4         -0.0018061   0.0000000   0.0000000   0.0007233  -0.0000000
           F4X5         -0.0011317   0.0000874  -0.0003133  -0.0000000   0.0005639
           F4Y5         -0.0011317  -0.0003133   0.0000874   0.0000000  -0.0007696
           F4Z5         -0.0018061   0.0000000   0.0000000   0.0004007   0.0000000
           F5X6          0.0011317   0.0005639  -0.0007696  -0.0000000   0.0000874
           F5Y6         -0.0011317   0.0007696  -0.0041762  -0.0000000   0.0003133
           F5Z6         -0.0018061  -0.0000000   0.0000000   0.0007233   0.0000000
           F6X7         -0.0000000  -0.0005414  -0.0012647  -0.0022201  -0.0005414
           F6Y7          0.0000000  -0.0012647  -0.0005414  -0.0022201   0.0012647
           F6Z7         -0.0002259  -0.0011317  -0.0011317  -0.0018061   0.0011317
                             F3Y4        F3Z4        F4X5        F4Y5        F4Z5    
           F3Y4          0.0148383
           F3Z4          0.0000000   0.0066801
           F4X5          0.0007696  -0.0000000   0.0148383
           F4Y5         -0.0041762   0.0000000   0.0081582   0.0148383
           F4Z5          0.0000000   0.0007233   0.0000000   0.0000000   0.0066801
           F5X6          0.0003133  -0.0000000  -0.0041762   0.0007696  -0.0000000
           F5Y6          0.0000874   0.0000000  -0.0007696   0.0005639   0.0000000
           F5Z6          0.0000000   0.0004007   0.0000000   0.0000000   0.0007233
           F6X7          0.0012647   0.0022201  -0.0005414  -0.0012647   0.0022201
           F6Y7         -0.0005414  -0.0022201  -0.0012647  -0.0005414   0.0022201
           F6Z7         -0.0011317  -0.0018061   0.0011317   0.0011317  -0.0018061
                             F5X6        F5Y6        F5Z6        F6X7        F6Y7    
           F5X6          0.0148383
           F5Y6         -0.0081582   0.0148383
           F5Z6          0.0000000   0.0000000   0.0066801
           F6X7         -0.0005414   0.0012647  -0.0022201   0.0066801
           F6Y7          0.0012647  -0.0005414   0.0022201  -0.0000000   0.0066801
           F6Z7         -0.0011317   0.0011317  -0.0018061   0.0000000  -0.0000000
                             F6Z7    
           F6Z7          0.0229965


 Mass Weighted 2nd Derivative Matrix Eigenvalues
   1- 10    0.000000    0.000000    0.000000    0.000000    0.000000    0.000000    0.005634    0.005634    0.005634    0.012559
  11- 20    0.012559    0.012559    0.017428    0.017428    0.017428    0.020022    0.020022    0.029624    0.044028    0.044028
  21- 21    0.044028

 Mass Weighted 2nd Derivative Matrix Eigenvectors
              1             2             3             4             5             6             7             8
    1     0.4602537    -0.0022066     0.0014824    -0.0049545    -0.0000765    -0.0847228     0.0000000     0.0000000
    2     0.0388592    -0.0127725     0.0193470     0.4020870     0.1411671     0.1881317     0.0000000    -0.0000000
    3    -0.0101716     0.1770194     0.1429007    -0.1131355     0.3895794    -0.0511023     0.0000000     0.0000000
    4     0.3393850    -0.4284473    -0.1185911    -0.0515757     0.2140441    -0.1373733     0.0000000    -0.0000054
    5     0.0431505     0.1567719    -0.4422095     0.2755674     0.1991843     0.2062986     0.0000000     0.5000001
    6    -0.0078408     0.1364564     0.1101558    -0.0872111     0.3003095    -0.0393925     0.0000000     0.0000000
    7     0.3001287     0.0439602    -0.0373659     0.1500923    -0.0037873    -0.3731105     0.0000000     0.2500026
    8     0.0846154    -0.0555069     0.0534224     0.1560396     0.1125478     0.4528238     0.0000000    -0.2500027
    9    -0.0062791     0.3203952     0.5180554    -0.0291292     0.0850182    -0.0317643     0.5000000     0.0000000
   10     0.3001287     0.0439602    -0.0373659     0.1500923    -0.0037873    -0.3731105     0.0000000    -0.2499973
   11    -0.0247056     0.0358154    -0.0235949     0.4638626     0.1050911    -0.1627791     0.0000000    -0.2499973
   12    -0.0280640    -0.2831152     0.3487262    -0.0966671     0.3878057    -0.1336784    -0.5000000     0.0000000
   13     0.4094498    -0.0473621     0.0396514    -0.1577307     0.0036694     0.2424923     0.0000000     0.2500026
   14    -0.0247056     0.0358154    -0.0235949     0.4638626     0.1050911    -0.1627791     0.0000000    -0.2500027
   15    -0.0094025    -0.0474824    -0.2977437    -0.1452931     0.5156008    -0.0470208     0.5000000     0.0000000
   16     0.4094498    -0.0473621     0.0396514    -0.1577307     0.0036694     0.2424923     0.0000000    -0.2499973
   17     0.0846154    -0.0555069     0.0534224     0.1560396     0.1125478     0.4528238     0.0000000    -0.2499973
   18     0.0123824     0.5560281    -0.1284145    -0.0777551     0.2128133     0.0548934    -0.5000000     0.0000000
   19     0.3701935     0.4250454     0.1208766     0.0439374    -0.2141620     0.0067551     0.0000000    -0.0000054
   20     0.0167592    -0.1764633     0.4720369     0.3443348     0.0184547     0.0837462     0.0000000     0.5000001
   21    -0.0078408     0.1364564     0.1101558    -0.0872111     0.3003095    -0.0393925     0.0000000     0.0000000
              9            10            11            12            13            14            15            16
    1    -0.0000000     0.0000000     0.0000000     0.0000000     0.0000000    -0.0000002     0.3985777     0.0000000
    2     0.0000000     0.0000000     0.0000000     0.0000000     0.0000000     0.3985777     0.0000002     0.0000000
    3     0.0000000     0.0000000     0.0000000     0.0000000     0.3985777     0.0000000     0.0000000     0.0000000
    4     0.5000001     0.0000000     0.4999990     0.0009800     0.0000000     0.0000001    -0.3438224     0.0000000
    5     0.0000054     0.0000000    -0.0009800     0.4999990     0.0000000    -0.3438224    -0.0000001     0.0000000
    6     0.0000000     0.0000000     0.0000000     0.0000000     0.4291156     0.0000000     0.0000000     0.5773503
    7    -0.2499973     0.3535534     0.0000000     0.0000000     0.0000000     0.3864690     0.0426467    -0.2041241
    8     0.2499973    -0.3535534     0.0000000     0.0000000     0.0000000     0.0426464     0.3864691    -0.2041241
    9     0.0000000     0.0000000     0.3528597     0.3542457    -0.3438224     0.0000000     0.0000000     0.0000000
   10    -0.2500027    -0.3535534     0.0000000     0.0000000     0.0000000    -0.3864691     0.0426464     0.2041241
   11    -0.2500026    -0.3535534     0.0000000     0.0000000     0.0000000     0.0426467    -0.3864690    -0.2041241
   12     0.0000000     0.0000000    -0.3542457     0.3528597    -0.3438224     0.0000000     0.0000000     0.0000000
   13    -0.2499973    -0.3535534     0.0000000     0.0000000     0.0000000     0.3864690     0.0426467     0.2041241
   14     0.2499973     0.3535534     0.0000000     0.0000000     0.0000000     0.0426464     0.3864691     0.2041241
   15     0.0000000     0.0000000    -0.3528597    -0.3542457    -0.3438224     0.0000000     0.0000000     0.0000000
   16    -0.2500027     0.3535534     0.0000000     0.0000000     0.0000000    -0.3864691     0.0426464    -0.2041241
   17    -0.2500026     0.3535534     0.0000000     0.0000000     0.0000000     0.0426467    -0.3864690     0.2041241
   18     0.0000000     0.0000000     0.3542457    -0.3528597    -0.3438224     0.0000000     0.0000000     0.0000000
   19     0.5000001     0.0000000    -0.4999990    -0.0009800     0.0000000     0.0000001    -0.3438224     0.0000000
   20     0.0000054     0.0000000     0.0009800    -0.4999990     0.0000000    -0.3438224    -0.0000001     0.0000000
   21     0.0000000     0.0000000     0.0000000     0.0000000     0.4291156     0.0000000     0.0000000    -0.5773503
             17            18            19            20            21
    1     0.0000000     0.0000000     0.0000000     0.0000000     0.7887286
    2     0.0000000     0.0000000     0.0000000     0.7887286     0.0000000
    3     0.0000000     0.0000000     0.7887286     0.0000000     0.0000000
    4     0.0000000     0.0000000     0.0000000     0.0000000    -0.0403316
    5     0.0000000     0.0000000     0.0000000    -0.0403316     0.0000000
    6     0.0000000     0.4082483    -0.4309296     0.0000000     0.0000000
    7     0.3535534     0.2886751     0.0000000    -0.1952990    -0.2356306
    8     0.3535534     0.2886751     0.0000000    -0.2356306    -0.1952990
    9     0.0000000     0.0000000    -0.0403316     0.0000000     0.0000000
   10     0.3535534    -0.2886751     0.0000000     0.1952990    -0.2356306
   11    -0.3535534     0.2886751     0.0000000    -0.2356306     0.1952990
   12     0.0000000     0.0000000    -0.0403316     0.0000000     0.0000000
   13    -0.3535534    -0.2886751     0.0000000    -0.1952990    -0.2356306
   14    -0.3535534    -0.2886751     0.0000000    -0.2356306    -0.1952990
   15     0.0000000     0.0000000    -0.0403316     0.0000000     0.0000000
   16    -0.3535534     0.2886751     0.0000000     0.1952990    -0.2356306
   17     0.3535534    -0.2886751     0.0000000    -0.2356306     0.1952990
   18     0.0000000     0.0000000    -0.0403316     0.0000000     0.0000000
   19     0.0000000     0.0000000     0.0000000     0.0000000    -0.0403316
   20     0.0000000     0.0000000     0.0000000    -0.0403316     0.0000000
   21     0.0000000    -0.4082483    -0.4309296     0.0000000     0.0000000

   Low Vibration      Wavenumber
        Nr             [1/cm] 
        1                0.00
        2                0.00
        3                0.00
        4                0.00
        5                0.00
        6                0.00

     Vibration        Wavenumber
        Nr             [1/cm] 
        1              385.85
        2              385.85
        3              385.85
        4              576.07
        5              576.07
        6              576.07
        7              678.63
        8              678.63
        9              678.63
       10              727.37
       11              727.37
       12              884.76
       13             1078.62
       14             1078.62
       15             1078.62

 FREQUENCIES * CALCULATION OF NORMAL MODES FOR HF-SCF


 Atomic Coordinates

  Nr  Atom  Charge       X              Y              Z

   1   S    16.00    0.000000000    0.000000000    0.000000000
   2   F1    9.00    0.000000000    0.000000000    2.902218900
   3   F2    9.00    2.052178664    2.052178664    0.000000000
   4   F3    9.00   -2.052178664    2.052178664    0.000000000
   5   F4    9.00   -2.052178664   -2.052178664    0.000000000
   6   F5    9.00    2.052178664   -2.052178664    0.000000000
   7   F6    9.00    0.000000000    0.000000000   -2.902218900

 Gradient norm at reference geometry: 0.11178D-03

 Normal Modes

                              1 Au        2 B3u       3 B2u       4 Ag        5 B3g
 Wavenumbers [cm-1]          385.85      385.85      385.85      576.07      576.07
 Intensities [km/mol]          0.00        0.00        0.00        0.00        0.00
 Intensities [relative]        0.00        0.00        0.00        0.00        0.00
           SX1             -0.00000     0.00000    -0.00000    -0.00000    -0.00000
           SY1             -0.00000    -0.00000    -0.00000    -0.00000    -0.00000
           SZ1              0.00000     0.00000    -0.00000    -0.00000     0.00000
           F1X2             0.00000    -0.00000     0.11471    -0.00000     0.11471
           F1Y2            -0.00000     0.11471     0.00000    -0.00000    -0.00022
           F1Z2             0.00000     0.00000     0.00000     0.00000    -0.00000
           F2X3            -0.00000     0.05736    -0.05736     0.08111     0.00000
           F2Y3             0.00000    -0.05736     0.05736    -0.08111    -0.00000
           F2Z3             0.11471     0.00000    -0.00000    -0.00000     0.08095
           F3X4            -0.00000    -0.05736    -0.05736    -0.08111    -0.00000
           F3Y4            -0.00000    -0.05736    -0.05736    -0.08111    -0.00000
           F3Z4            -0.11471    -0.00000     0.00000    -0.00000    -0.08127
           F4X5            -0.00000     0.05736    -0.05736    -0.08111    -0.00000
           F4Y5             0.00000    -0.05736     0.05736     0.08111     0.00000
           F4Z5             0.11471     0.00000    -0.00000     0.00000    -0.08095
           F5X6            -0.00000    -0.05736    -0.05736     0.08111     0.00000
           F5Y6            -0.00000    -0.05736    -0.05736     0.08111     0.00000
           F5Z6            -0.11471    -0.00000     0.00000     0.00000     0.08127
           F6X7             0.00000    -0.00000     0.11471     0.00000    -0.11471
           F6Y7            -0.00000     0.11471     0.00000     0.00000     0.00022
           F6Z7            -0.00000     0.00000     0.00000    -0.00000    -0.00000

                              6 B2g       7 B1u       8 B3u       9 B2u      10 Ag 
 Wavenumbers [cm-1]          576.07      678.63      678.63      678.63      727.37
 Intensities [km/mol]          0.00        0.00        0.00        0.00        0.00
 Intensities [relative]        0.00        0.00        0.00        0.00        0.00
           SX1             -0.00000     0.00000    -0.00000     0.07049     0.00000
           SY1             -0.00000     0.00000     0.07049     0.00000     0.00000
           SZ1             -0.00000     0.07049    -0.00000    -0.00000     0.00000
           F1X2             0.00022    -0.00000     0.00000    -0.07888    -0.00000
           F1Y2             0.11471    -0.00000    -0.07888    -0.00000    -0.00000
           F1Z2            -0.00000     0.09845    -0.00000    -0.00000     0.13246
           F2X3             0.00000     0.00000     0.08867     0.00978    -0.04683
           F2Y3            -0.00000     0.00000     0.00978     0.08867    -0.04683
           F2Z3             0.08127    -0.07888     0.00000     0.00000    -0.00000
           F3X4            -0.00000    -0.00000    -0.08867     0.00978     0.04683
           F3Y4            -0.00000    -0.00000     0.00978    -0.08867    -0.04683
           F3Z4             0.08095    -0.07888     0.00000     0.00000    -0.00000
           F4X5            -0.00000     0.00000     0.08867     0.00978     0.04683
           F4Y5             0.00000     0.00000     0.00978     0.08867     0.04683
           F4Z5            -0.08127    -0.07888     0.00000     0.00000    -0.00000
           F5X6             0.00000    -0.00000    -0.08867     0.00978    -0.04683
           F5Y6             0.00000    -0.00000     0.00978    -0.08867     0.04683
           F5Z6            -0.08095    -0.07888     0.00000     0.00000    -0.00000
           F6X7            -0.00022    -0.00000     0.00000    -0.07888    -0.00000
           F6Y7            -0.11471    -0.00000    -0.07888    -0.00000     0.00000
           F6Z7            -0.00000     0.09845    -0.00000    -0.00000    -0.13246

                             11 B1g      12 Ag       13 B1u      14 B3u      15 B2u
 Wavenumbers [cm-1]          727.37      884.76     1078.62     1078.62     1078.62
 Intensities [km/mol]          0.00        0.00        0.00        0.00        0.00
 Intensities [relative]        0.00        0.00        0.00        0.00        0.00
           SX1             -0.00000    -0.00000    -0.00000    -0.00000     0.13949
           SY1              0.00000    -0.00000    -0.00000     0.13949     0.00000
           SZ1             -0.00000     0.00000     0.13949     0.00000     0.00000
           F1X2            -0.00000    -0.00000    -0.00000    -0.00000    -0.00925
           F1Y2            -0.00000     0.00000     0.00000    -0.00925    -0.00000
           F1Z2            -0.00000     0.09366    -0.09887    -0.00000    -0.00000
           F2X3             0.08111     0.06623     0.00000    -0.04481    -0.05406
           F2Y3             0.08111     0.06623     0.00000    -0.05406    -0.04481
           F2Z3             0.00000    -0.00000    -0.00925    -0.00000    -0.00000
           F3X4             0.08111    -0.06623    -0.00000     0.04481    -0.05406
           F3Y4            -0.08111     0.06623     0.00000    -0.05406     0.04481
           F3Z4             0.00000    -0.00000    -0.00925    -0.00000    -0.00000
           F4X5            -0.08111    -0.06623     0.00000    -0.04481    -0.05406
           F4Y5            -0.08111    -0.06623     0.00000    -0.05406    -0.04481
           F4Z5             0.00000    -0.00000    -0.00925    -0.00000    -0.00000
           F5X6            -0.08111     0.06623    -0.00000     0.04481    -0.05406
           F5Y6             0.08111    -0.06623     0.00000    -0.05406     0.04481
           F5Z6             0.00000    -0.00000    -0.00925    -0.00000    -0.00000
           F6X7             0.00000     0.00000     0.00000     0.00000    -0.00925
           F6Y7            -0.00000     0.00000     0.00000    -0.00925    -0.00000
           F6Z7             0.00000    -0.09366    -0.09887    -0.00000    -0.00000


 Normal Modes of low/zero frequencies

                                  1           2           3           4           5
 Wavenumbers [cm-1]            0.00        0.00        0.00        0.00        0.00
 Intensities [km/mol]          0.00        0.00        0.00        0.00        0.00
 Intensities [relative]        0.00        0.00        0.00        0.00        0.00
           SX1              0.08140    -0.00039     0.00026    -0.00088    -0.00001
           SY1              0.00687    -0.00226     0.00342     0.07111     0.02497
           SZ1             -0.00180     0.03131     0.02527    -0.02001     0.06890
           F1X2             0.07786    -0.09830    -0.02721    -0.01183     0.04911
           F1Y2             0.00990     0.03597    -0.10145     0.06322     0.04570
           F1Z2            -0.00180     0.03131     0.02527    -0.02001     0.06890
           F2X3             0.06886     0.01009    -0.00857     0.03443    -0.00087
           F2Y3             0.01941    -0.01273     0.01226     0.03580     0.02582
           F2Z3            -0.00144     0.07351     0.11886    -0.00668     0.01951
           F3X4             0.06886     0.01009    -0.00857     0.03443    -0.00087
           F3Y4            -0.00567     0.00822    -0.00541     0.10642     0.02411
           F3Z4            -0.00644    -0.06495     0.08001    -0.02218     0.08897
           F4X5             0.09394    -0.01087     0.00910    -0.03619     0.00084
           F4Y5            -0.00567     0.00822    -0.00541     0.10642     0.02411
           F4Z5            -0.00216    -0.01089    -0.06831    -0.03333     0.11829
           F5X6             0.09394    -0.01087     0.00910    -0.03619     0.00084
           F5Y6             0.01941    -0.01273     0.01226     0.03580     0.02582
           F5Z6             0.00284     0.12757    -0.02946    -0.01784     0.04882
           F6X7             0.08493     0.09752     0.02773     0.01008    -0.04913
           F6Y7             0.00384    -0.04049     0.10830     0.07900     0.00423
           F6Z7            -0.00180     0.03131     0.02527    -0.02001     0.06890

                                  6
 Wavenumbers [cm-1]            0.00
 Intensities [km/mol]          0.00
 Intensities [relative]        0.00
           SX1             -0.01498
           SY1              0.03327
           SZ1             -0.00904
           F1X2            -0.03152
           F1Y2             0.04733
           F1Z2            -0.00904
           F2X3            -0.08560
           F2Y3             0.10389
           F2Z3            -0.00729
           F3X4            -0.08560
           F3Y4            -0.03735
           F3Z4            -0.03067
           F4X5             0.05563
           F4Y5            -0.03735
           F4Z5            -0.01079
           F5X6             0.05563
           F5Y6             0.10389
           F5Z6             0.01259
           F6X7             0.00155
           F6Y7             0.01921
           F6Z7            -0.00904


 Frequencies dumped to record   5400.2

 Zero point energy:  0.02391394 [H]     5248.50 [1/CM]       62.79 [KJ/MOL]
 Frequency information read from record  5400.2


 **********************************************************************************************************************************
 DATASETS  * FILE   NREC   LENGTH (MB)   RECORD NAMES
              1      18       28.95       500      610      700      900      950      970     1000      129      960     1100   
                                          VAR    BASINP    GEOM    SYMINP    ZMAT    AOBASIS   BASIS     P2S    ABASIS      S 
                                         1400     1410     1200     1210     1080     1600     1650     1700   
                                           T        V       H0       H01     AOSYM     SMH    MOLCAS    OPER   

              2       7        0.63       700     1000      520     2100     5300     5450     5400   
                                         GEOM     BASIS   MCVARS     RHF     HESS     NMOD     FREQ   

              4       5        1.16      4100     4000     4200     4300     4400   

 PROGRAMS   *        TOTAL      FREQ      OPTG    HF-SCF       INT
 CPU TIMES  *        43.66     22.26     18.40      0.10      2.77
 REAL TIME  *        48.70 SEC
 DISK USED  *        29.99 MB (local),      865.24 MB (total)
 SF USED    *         1.16 MB
 GA USED    *         0.00 MB       (max)       0.00 MB       (current)
 **********************************************************************************************************************************

 Dump information in style MOLDEN to sf6.molden                                                                      

 Molecular orbitals read from record     2100.2  Type=RHF/CANONICAL  
 Occupation numbers read from record     2100.2  Type=RHF/RHF  
 Orbital energies read from record       2100.2  Type=RHF/CANONICAL  
 Redundancy group numbers read from rec  2100.2  Type=RHF/RHF  

 DUMP ORBITAL  1.1 AS ORBITAL    1  occ=    2.0000  eig=  -92.4433  GROUP=   2
 DUMP ORBITAL  1.4 AS ORBITAL    2  occ=    2.0000  eig=  -26.3758  GROUP=   2
 DUMP ORBITAL  2.1 AS ORBITAL    3  occ=    2.0000  eig=  -26.3758  GROUP=   2
 DUMP ORBITAL  1.2 AS ORBITAL    4  occ=    2.0000  eig=  -26.3758  GROUP=   2
 DUMP ORBITAL  1.3 AS ORBITAL    5  occ=    2.0000  eig=  -26.3758  GROUP=   2
 DUMP ORBITAL  1.5 AS ORBITAL    6  occ=    2.0000  eig=  -26.3758  GROUP=   2
 DUMP ORBITAL  3.1 AS ORBITAL    7  occ=    2.0000  eig=  -26.3758  GROUP=   2
 DUMP ORBITAL  4.1 AS ORBITAL    8  occ=    2.0000  eig=   -9.3770  GROUP=   2
 DUMP ORBITAL  2.2 AS ORBITAL    9  occ=    2.0000  eig=   -7.0658  GROUP=   2
 DUMP ORBITAL  2.3 AS ORBITAL   10  occ=    2.0000  eig=   -7.0658  GROUP=   2
 DUMP ORBITAL  2.5 AS ORBITAL   11  occ=    2.0000  eig=   -7.0658  GROUP=   2
 DUMP ORBITAL  5.1 AS ORBITAL   12  occ=    2.0000  eig=   -1.8558  GROUP=   2
 DUMP ORBITAL  3.2 AS ORBITAL   13  occ=    2.0000  eig=   -1.7172  GROUP=   2
 DUMP ORBITAL  3.3 AS ORBITAL   14  occ=    2.0000  eig=   -1.7172  GROUP=   2
 DUMP ORBITAL  3.5 AS ORBITAL   15  occ=    2.0000  eig=   -1.7172  GROUP=   2
 DUMP ORBITAL  2.4 AS ORBITAL   16  occ=    2.0000  eig=   -1.6567  GROUP=   2
 DUMP ORBITAL  6.1 AS ORBITAL   17  occ=    2.0000  eig=   -1.6567  GROUP=   2
 DUMP ORBITAL  7.1 AS ORBITAL   18  occ=    2.0000  eig=   -1.0908  GROUP=   2
 DUMP ORBITAL  4.2 AS ORBITAL   19  occ=    2.0000  eig=   -0.9269  GROUP=   2
 DUMP ORBITAL  4.3 AS ORBITAL   20  occ=    2.0000  eig=   -0.9269  GROUP=   2
 DUMP ORBITAL  4.5 AS ORBITAL   21  occ=    2.0000  eig=   -0.9269  GROUP=   2
 DUMP ORBITAL  1.7 AS ORBITAL   22  occ=    2.0000  eig=   -0.8368  GROUP=   2
 DUMP ORBITAL  1.6 AS ORBITAL   23  occ=    2.0000  eig=   -0.8368  GROUP=   2
 DUMP ORBITAL  8.1 AS ORBITAL   24  occ=    2.0000  eig=   -0.8368  GROUP=   2
 DUMP ORBITAL  3.4 AS ORBITAL   25  occ=    2.0000  eig=   -0.7412  GROUP=   2
 DUMP ORBITAL  9.1 AS ORBITAL   26  occ=    2.0000  eig=   -0.7412  GROUP=   2
 DUMP ORBITAL  5.3 AS ORBITAL   27  occ=    2.0000  eig=   -0.7258  GROUP=   2
 DUMP ORBITAL  5.2 AS ORBITAL   28  occ=    2.0000  eig=   -0.7258  GROUP=   2
 DUMP ORBITAL  1.8 AS ORBITAL   29  occ=    2.0000  eig=   -0.7258  GROUP=   2
 DUMP ORBITAL  5.5 AS ORBITAL   30  occ=    2.0000  eig=   -0.7144  GROUP=   2
 DUMP ORBITAL  6.2 AS ORBITAL   31  occ=    2.0000  eig=   -0.7144  GROUP=   2
 DUMP ORBITAL  6.3 AS ORBITAL   32  occ=    2.0000  eig=   -0.7144  GROUP=   2
 DUMP ORBITAL  2.7 AS ORBITAL   33  occ=    2.0000  eig=   -0.6717  GROUP=   2
 DUMP ORBITAL  2.6 AS ORBITAL   34  occ=    2.0000  eig=   -0.6717  GROUP=   2
 DUMP ORBITAL  4.4 AS ORBITAL   35  occ=    2.0000  eig=   -0.6717  GROUP=   2

 Total charge:      70.000000
 Frequency information read from record  5400.2

 **********************************************************************************************************************************

 HF/cc-pVTZ//HF/cc-pVTZ energy=   -994.304082166737

    OPTG(HF-SCF)          HF-SCF
   -994.30408217   -994.30038945
 **********************************************************************************************************************************
 Molpro calculation terminated
