 Entering Gaussian System, Link 0=g16
 Input=c2h5oh.com
 Output=c2h5oh.log
 Initial command:
 /usr/local/g16/l1.exe "/scratch/ddi/Gau-3788266.inp" -scrdir="/scratch/ddi/"
 Entering Link 1 = /usr/local/g16/l1.exe PID=   3788268.
  
 Copyright (c) 1988,1990,1992,1993,1995,1998,2003,2009,2016,
            Gaussian, Inc.  All Rights Reserved.
  
 This is part of the Gaussian(R) 16 program.  It is based on
 the Gaussian(R) 09 system (copyright 2009, Gaussian, Inc.),
 the Gaussian(R) 03 system (copyright 2003, Gaussian, Inc.),
 the Gaussian(R) 98 system (copyright 1998, Gaussian, Inc.),
 the Gaussian(R) 94 system (copyright 1995, Gaussian, Inc.),
 the Gaussian 92(TM) system (copyright 1992, Gaussian, Inc.),
 the Gaussian 90(TM) system (copyright 1990, Gaussian, Inc.),
 the Gaussian 88(TM) system (copyright 1988, Gaussian, Inc.),
 the Gaussian 86(TM) system (copyright 1986, Carnegie Mellon
 University), and the Gaussian 82(TM) system (copyright 1983,
 Carnegie Mellon University). Gaussian is a federally registered
 trademark of Gaussian, Inc.
  
 This software contains proprietary and confidential information,
 including trade secrets, belonging to Gaussian, Inc.
  
 This software is provided under written license and may be
 used, copied, transmitted, or stored only in accord with that
 written license.
  
 The following legend is applicable only to US Government
 contracts under FAR:
  
                    RESTRICTED RIGHTS LEGEND
  
 Use, reproduction and disclosure by the US Government is
 subject to restrictions as set forth in subparagraphs (a)
 and (c) of the Commercial Computer Software - Restricted
 Rights clause in FAR 52.227-19.
  
 Gaussian, Inc.
 340 Quinnipiac St., Bldg. 40, Wallingford CT 06492
  
  
 ---------------------------------------------------------------
 Warning -- This program may not be used in any manner that
 competes with the business of Gaussian, Inc. or will provide
 assistance to any competitor of Gaussian, Inc.  The licensee
 of this program is prohibited from giving any competitor of
 Gaussian, Inc. access to this program.  By using this program,
 the user acknowledges that Gaussian, Inc. is engaged in the
 business of creating and licensing software in the field of
 computational chemistry and represents and warrants to the
 licensee that it is not a competitor of Gaussian, Inc. and that
 it will not use this program in any manner prohibited above.
 ---------------------------------------------------------------
  

 Cite this work as:
 Gaussian 16, Revision A.03,
 M. J. Frisch, G. W. Trucks, H. B. Schlegel, G. E. Scuseria, 
 M. A. Robb, J. R. Cheeseman, G. Scalmani, V. Barone, 
 G. A. Petersson, H. Nakatsuji, X. Li, M. Caricato, A. V. Marenich, 
 J. Bloino, B. G. Janesko, R. Gomperts, B. Mennucci, H. P. Hratchian, 
 J. V. Ortiz, A. F. Izmaylov, J. L. Sonnenberg, D. Williams-Young, 
 F. Ding, F. Lipparini, F. Egidi, J. Goings, B. Peng, A. Petrone, 
 T. Henderson, D. Ranasinghe, V. G. Zakrzewski, J. Gao, N. Rega, 
 G. Zheng, W. Liang, M. Hada, M. Ehara, K. Toyota, R. Fukuda, 
 J. Hasegawa, M. Ishida, T. Nakajima, Y. Honda, O. Kitao, H. Nakai, 
 T. Vreven, K. Throssell, J. A. Montgomery, Jr., J. E. Peralta, 
 F. Ogliaro, M. J. Bearpark, J. J. Heyd, E. N. Brothers, K. N. Kudin, 
 V. N. Staroverov, T. A. Keith, R. Kobayashi, J. Normand, 
 K. Raghavachari, A. P. Rendell, J. C. Burant, S. S. Iyengar, 
 J. Tomasi, M. Cossi, J. M. Millam, M. Klene, C. Adamo, R. Cammi, 
 J. W. Ochterski, R. L. Martin, K. Morokuma, O. Farkas, 
 J. B. Foresman, and D. J. Fox, Gaussian, Inc., Wallingford CT, 2016.
 
 ******************************************
 Gaussian 16:  ES64L-G16RevA.03 25-Dec-2016
                10-Oct-2022 
 ******************************************
 %nprocshared=12
 Will use up to   12 processors via shared memory.
 %chk=c2h5oh.chk
 ----------------------------------------------------
 #p opt=tight freq hf/6-311++g(d,p) geom=connectivity
 ----------------------------------------------------
 1/7=10,18=20,19=15,38=1,57=2/1,3;
 2/9=110,12=2,17=6,18=5,40=1/2;
 3/5=4,6=6,7=1111,11=9,25=1,30=1,71=1/1,2,3;
 4//1;
 5/5=2,38=5/2;
 6/7=2,8=2,9=2,10=2,28=1/1;
 7//1,2,3,16;
 1/7=10,18=20,19=15/3(2);
 2/9=110/2;
 99//99;
 2/9=110/2;
 3/5=4,6=6,7=1111,11=9,25=1,30=1,71=1/1,2,3;
 4/5=5,16=3,69=1/1;
 5/5=2,38=5/2;
 7//1,2,3,16;
 1/7=10,18=20,19=15/3(-5);
 2/9=110/2;
 6/7=2,8=2,9=2,10=2,19=2,28=1/1;
 99/9=1/99;
 Leave Link    1 at Mon Oct 10 14:42:21 2022, MaxMem=           0 cpu:               0.2 elap:               0.0
 (Enter /usr/local/g16/l101.exe)
 -------------------
 Title Card Required
 -------------------
 Symbolic Z-matrix:
 Charge =  0 Multiplicity = 1
 C
 H                    1    B1
 H                    1    B2       2    A1
 C                    1    B3       2    A2       3    D1       0
 H                    4    B4       1    A3       2    D2       0
 H                    4    B5       1    A4       2    D3       0
 H                    4    B6       1    A5       2    D4       0
 O                    1    B7       4    A6       7    D5       0
 H                    8    B8       1    A7       4    D6       0
       Variables:
  B1                    1.07                     
  B2                    1.07                     
  B3                    1.54                     
  B4                    1.07                     
  B5                    1.07                     
  B6                    1.07                     
  B7                    1.43                     
  B8                    0.96                     
  A1                  109.47123                  
  A2                  109.4712                   
  A3                  109.4712                   
  A4                  109.4712                   
  A5                  109.47123                  
  A6                  109.47125                  
  A7                  109.5                      
  D1                  119.99999                  
  D2                   59.9889                   
  D3                  179.98891                  
  D4                  -60.01109                  
  D5                  179.98892                  
  D6                  179.88889                  
 
     6 tetrahedral angles replaced.
 ITRead=  0  0  0  0  0  0  0  0  0
 MicOpt= -1 -1 -1 -1 -1 -1 -1 -1 -1
 NAtoms=      9 NQM=        9 NQMF=       0 NMMI=      0 NMMIF=      0
                NMic=       0 NMicF=      0.
                    Isotopes and Nuclear Properties:
 (Nuclear quadrupole moments (NQMom) in fm**2, nuclear magnetic moments (NMagM)
  in nuclear magnetons)

  Atom         1           2           3           4           5           6           7           8           9
 IAtWgt=          12           1           1          12           1           1           1          16           1
 AtmWgt=  12.0000000   1.0078250   1.0078250  12.0000000   1.0078250   1.0078250   1.0078250  15.9949146   1.0078250
 NucSpn=           0           1           1           0           1           1           1           0           1
 AtZEff=  -0.0000000  -0.0000000  -0.0000000  -0.0000000  -0.0000000  -0.0000000  -0.0000000  -0.0000000  -0.0000000
 NQMom=    0.0000000   0.0000000   0.0000000   0.0000000   0.0000000   0.0000000   0.0000000   0.0000000   0.0000000
 NMagM=    0.0000000   2.7928460   2.7928460   0.0000000   2.7928460   2.7928460   2.7928460   0.0000000   2.7928460
 AtZNuc=   6.0000000   1.0000000   1.0000000   6.0000000   1.0000000   1.0000000   1.0000000   8.0000000   1.0000000
 Leave Link  101 at Mon Oct 10 14:42:21 2022, MaxMem=   104857600 cpu:               0.6 elap:               0.1
 (Enter /usr/local/g16/l103.exe)

 GradGradGradGradGradGradGradGradGradGradGradGradGradGradGradGradGradGrad
 Berny optimization.
 Initialization pass.
                           ----------------------------
                           !    Initial Parameters    !
                           ! (Angstroms and Degrees)  !
 --------------------------                            --------------------------
 ! Name  Definition              Value          Derivative Info.                !
 --------------------------------------------------------------------------------
 ! R1    R(1,2)                  1.07           estimate D2E/DX2                !
 ! R2    R(1,3)                  1.07           estimate D2E/DX2                !
 ! R3    R(1,4)                  1.54           estimate D2E/DX2                !
 ! R4    R(1,8)                  1.43           estimate D2E/DX2                !
 ! R5    R(4,5)                  1.07           estimate D2E/DX2                !
 ! R6    R(4,6)                  1.07           estimate D2E/DX2                !
 ! R7    R(4,7)                  1.07           estimate D2E/DX2                !
 ! R8    R(8,9)                  0.96           estimate D2E/DX2                !
 ! A1    A(2,1,3)              109.4712         estimate D2E/DX2                !
 ! A2    A(2,1,4)              109.4712         estimate D2E/DX2                !
 ! A3    A(2,1,8)              109.4712         estimate D2E/DX2                !
 ! A4    A(3,1,4)              109.4712         estimate D2E/DX2                !
 ! A5    A(3,1,8)              109.4712         estimate D2E/DX2                !
 ! A6    A(4,1,8)              109.4712         estimate D2E/DX2                !
 ! A7    A(1,4,5)              109.4712         estimate D2E/DX2                !
 ! A8    A(1,4,6)              109.4712         estimate D2E/DX2                !
 ! A9    A(1,4,7)              109.4712         estimate D2E/DX2                !
 ! A10   A(5,4,6)              109.4712         estimate D2E/DX2                !
 ! A11   A(5,4,7)              109.4712         estimate D2E/DX2                !
 ! A12   A(6,4,7)              109.4712         estimate D2E/DX2                !
 ! A13   A(1,8,9)              109.5            estimate D2E/DX2                !
 ! D1    D(2,1,4,5)             59.9889         estimate D2E/DX2                !
 ! D2    D(2,1,4,6)            179.9889         estimate D2E/DX2                !
 ! D3    D(2,1,4,7)            -60.0111         estimate D2E/DX2                !
 ! D4    D(3,1,4,5)            179.9889         estimate D2E/DX2                !
 ! D5    D(3,1,4,6)            -60.0111         estimate D2E/DX2                !
 ! D6    D(3,1,4,7)             59.9889         estimate D2E/DX2                !
 ! D7    D(8,1,4,5)            -60.0111         estimate D2E/DX2                !
 ! D8    D(8,1,4,6)             59.9889         estimate D2E/DX2                !
 ! D9    D(8,1,4,7)            179.9889         estimate D2E/DX2                !
 ! D10   D(2,1,8,9)             59.8889         estimate D2E/DX2                !
 ! D11   D(3,1,8,9)            -60.1111         estimate D2E/DX2                !
 ! D12   D(4,1,8,9)            179.8889         estimate D2E/DX2                !
 --------------------------------------------------------------------------------
 Trust Radius=3.00D-01 FncErr=1.00D-07 GrdErr=1.00D-07 EigMax=2.50D+02 EigMin=1.00D-04
 Number of steps in this run=     43 maximum allowed number of steps=    100.
 GradGradGradGradGradGradGradGradGradGradGradGradGradGradGradGradGradGrad

 Leave Link  103 at Mon Oct 10 14:42:21 2022, MaxMem=   104857600 cpu:               0.1 elap:               0.0
 (Enter /usr/local/g16/l202.exe)
                          Input orientation:                          
 ---------------------------------------------------------------------
 Center     Atomic      Atomic             Coordinates (Angstroms)
 Number     Number       Type             X           Y           Z
 ---------------------------------------------------------------------
      1          6           0        0.000000    0.000000    0.000000
      2          1           0        0.000000    0.000000    1.070000
      3          1           0        1.008806    0.000000   -0.356667
      4          6           0       -0.725963   -1.257405   -0.513333
      5          1           0       -1.734712   -1.257503   -0.156507
      6          1           0       -0.726132   -1.257307   -1.583333
      7          1           0       -0.221447   -2.131056   -0.156826
      8          8           0       -0.674109    1.167590   -0.476666
      9          1           0       -0.222896    1.951704   -0.155462
 ---------------------------------------------------------------------
                    Distance matrix (angstroms):
                    1          2          3          4          5
     1  C    0.000000
     2  H    1.070000   0.000000
     3  H    1.070000   1.747303   0.000000
     4  C    1.540000   2.148263   2.148263   0.000000
     5  H    2.148263   2.468777   3.024610   1.070000   0.000000
     6  H    2.148263   3.024610   2.468915   1.070000   1.747303
     7  H    2.148263   2.468915   2.468777   1.070000   1.747303
     8  O    1.430000   2.051796   2.051796   2.425826   2.666169
     9  H    1.970533   2.315294   2.316619   3.267955   3.547477
                    6          7          8          9
     6  H    0.000000
     7  H    1.747303   0.000000
     8  O    2.665998   3.344887   0.000000
     9  H    3.548213   4.082761   0.960000   0.000000
 Stoichiometry    C2H6O
 Framework group  C1[X(C2H6O)]
 Deg. of freedom    21
 Full point group                 C1      NOp   1
 Largest Abelian subgroup         C1      NOp   1
 Largest concise Abelian subgroup C1      NOp   1
                         Standard orientation:                         
 ---------------------------------------------------------------------
 Center     Atomic      Atomic             Coordinates (Angstroms)
 Number     Number       Type             X           Y           Z
 ---------------------------------------------------------------------
      1          6           0       -0.087029    0.542650   -0.000096
      2          1           0       -0.146439    1.157590    0.873528
      3          1           0       -0.146227    1.157533   -0.873774
      4          6           0        1.249923   -0.221655    0.000091
      5          1           0        1.309205   -0.836391    0.873867
      6          1           0        1.309249   -0.836742   -0.873436
      7          1           0        2.060235    0.477126   -0.000029
      8          8           0       -1.169969   -0.391235   -0.000196
      9          1           0       -2.003632    0.084795    0.001442
 ---------------------------------------------------------------------
 Rotational constants (GHZ):          36.3552819           9.0935531           7.9810055
 Leave Link  202 at Mon Oct 10 14:42:21 2022, MaxMem=   104857600 cpu:               0.0 elap:               0.0
 (Enter /usr/local/g16/l301.exe)
 Standard basis: 6-311++G(d,p) (5D, 7F)
 Ernie: Thresh=  0.10000D-02 Tol=  0.10000D-05 Strict=F.
 There are   111 symmetry adapted cartesian basis functions of A   symmetry.
 There are   108 symmetry adapted basis functions of A   symmetry.
   108 basis functions,   162 primitive gaussians,   111 cartesian basis functions
    13 alpha electrons       13 beta electrons
       nuclear repulsion energy        81.6946227341 Hartrees.
 IExCor=    0 DFT=F Ex=HF Corr=None ExCW=0 ScaHFX=  1.000000
 ScaDFX=  1.000000  1.000000  1.000000  1.000000 ScalE2=  1.000000  1.000000
 IRadAn=      5 IRanWt=     -1 IRanGd=            0 ICorTp=0 IEmpDi=  4
 NAtoms=    9 NActive=    9 NUniq=    9 SFac= 1.00D+00 NAtFMM=   60 NAOKFM=F Big=F
 Integral buffers will be    131072 words long.
 Raffenetti 1 integral format.
 Two-electron integral symmetry is turned on.
 Leave Link  301 at Mon Oct 10 14:42:21 2022, MaxMem=   104857600 cpu:               0.3 elap:               0.0
 (Enter /usr/local/g16/l302.exe)
 NPDir=0 NMtPBC=     1 NCelOv=     1 NCel=       1 NClECP=     1 NCelD=      1
         NCelK=      1 NCelE2=     1 NClLst=     1 CellRange=     0.0.
 One-electron integrals computed using PRISM.
 One-electron integral symmetry used in STVInt
 NBasis=   108 RedAO= T EigKep=  1.21D-04  NBF=   108
 NBsUse=   108 1.00D-06 EigRej= -1.00D+00 NBFU=   108
 Leave Link  302 at Mon Oct 10 14:42:21 2022, MaxMem=   104857600 cpu:               0.8 elap:               0.1
 (Enter /usr/local/g16/l303.exe)
 DipDrv:  MaxL=1.
 Leave Link  303 at Mon Oct 10 14:42:21 2022, MaxMem=   104857600 cpu:               0.1 elap:               0.0
 (Enter /usr/local/g16/l401.exe)
 ExpMin= 3.60D-02 ExpMax= 8.59D+03 ExpMxC= 1.30D+03 IAcc=3 IRadAn=         5 AccDes= 0.00D+00
 Harris functional with IExCor=  205 and IRadAn=       5 diagonalized for initial guess.
 HarFok:  IExCor=  205 AccDes= 0.00D+00 IRadAn=         5 IDoV= 1 UseB2=F ITyADJ=14
 ICtDFT=  3500011 ScaDFX=  1.000000  1.000000  1.000000  1.000000
 FoFCou: FMM=F IPFlag=           0 FMFlag=      100000 FMFlg1=           0
         NFxFlg=           0 DoJE=T BraDBF=F KetDBF=T FulRan=T
         wScrn=  0.000000 ICntrl=       500 IOpCl=  0 I1Cent=   200000004 NGrid=           0
         NMat0=    1 NMatS0=      1 NMatT0=    0 NMatD0=    1 NMtDS0=    0 NMtDT0=    0
 Petite list used in FoFCou.
 Harris En= -154.417144363169    
 JPrj=0 DoOrth=F DoCkMO=F.
 Leave Link  401 at Mon Oct 10 14:42:22 2022, MaxMem=   104857600 cpu:               1.5 elap:               0.1
 (Enter /usr/local/g16/l502.exe)
 Keep R1 ints in memory in canonical form, NReq=19882675.
 FoFCou: FMM=F IPFlag=           0 FMFlag=           0 FMFlg1=           0
         NFxFlg=           0 DoJE=F BraDBF=F KetDBF=F FulRan=T
         wScrn=  0.000000 ICntrl=       600 IOpCl=  0 I1Cent=           0 NGrid=           0
         NMat0=    1 NMatS0=   5886 NMatT0=    0 NMatD0=    1 NMtDS0=    0 NMtDT0=    0
 Symmetry not used in FoFCou.
 Two-electron integral symmetry not used.
 Closed shell SCF:
 Using DIIS extrapolation, IDIIS=  1040.
 NGot=   104857600 LenX=    87504912 LenY=    87492150
 Requested convergence on RMS density matrix=1.00D-08 within 128 cycles.
 Requested convergence on MAX density matrix=1.00D-06.
 Requested convergence on             energy=1.00D-06.
 No special actions if energy rises.

 Cycle   1  Pass 1  IDiag  1:
 E= -153.927284832051    
 DIIS: error= 4.91D-02 at cycle   1 NSaved=   1.
 NSaved= 1 IEnMin= 1 EnMin= -153.927284832051     IErMin= 1 ErrMin= 4.91D-02
 ErrMax= 4.91D-02  0.00D+00 EMaxC= 1.00D-01 BMatC= 3.69D-01 BMatP= 3.69D-01
 IDIUse=3 WtCom= 5.09D-01 WtEn= 4.91D-01
 Coeff-Com:  0.100D+01
 Coeff-En:   0.100D+01
 Coeff:      0.100D+01
 Gap=     0.482 Goal=   None    Shift=    0.000
 GapD=    0.482 DampG=2.000 DampE=0.500 DampFc=1.0000 IDamp=-1.
 RMSDP=3.73D-03 MaxDP=1.09D-01              OVMax= 1.27D-01

 Cycle   2  Pass 1  IDiag  1:
 E= -154.087805994220     Delta-E=       -0.160521162169 Rises=F Damp=F
 DIIS: error= 2.52D-02 at cycle   2 NSaved=   2.
 NSaved= 2 IEnMin= 2 EnMin= -154.087805994220     IErMin= 2 ErrMin= 2.52D-02
 ErrMax= 2.52D-02  0.00D+00 EMaxC= 1.00D-01 BMatC= 5.06D-02 BMatP= 3.69D-01
 IDIUse=3 WtCom= 7.48D-01 WtEn= 2.52D-01
 Coeff-Com:  0.217D+00 0.783D+00
 Coeff-En:   0.000D+00 0.100D+01
 Coeff:      0.162D+00 0.838D+00
 Gap=     0.525 Goal=   None    Shift=    0.000
 RMSDP=1.94D-03 MaxDP=4.29D-02 DE=-1.61D-01 OVMax= 5.07D-02

 Cycle   3  Pass 1  IDiag  1:
 E= -154.124181166600     Delta-E=       -0.036375172381 Rises=F Damp=F
 DIIS: error= 8.46D-03 at cycle   3 NSaved=   3.
 NSaved= 3 IEnMin= 3 EnMin= -154.124181166600     IErMin= 3 ErrMin= 8.46D-03
 ErrMax= 8.46D-03  0.00D+00 EMaxC= 1.00D-01 BMatC= 5.22D-03 BMatP= 5.06D-02
 IDIUse=3 WtCom= 9.15D-01 WtEn= 8.46D-02
 Coeff-Com: -0.159D-01 0.215D+00 0.801D+00
 Coeff-En:   0.000D+00 0.000D+00 0.100D+01
 Coeff:     -0.145D-01 0.197D+00 0.817D+00
 Gap=     0.486 Goal=   None    Shift=    0.000
 RMSDP=4.03D-04 MaxDP=1.20D-02 DE=-3.64D-02 OVMax= 1.45D-02

 Cycle   4  Pass 1  IDiag  1:
 E= -154.127798322197     Delta-E=       -0.003617155597 Rises=F Damp=F
 DIIS: error= 1.51D-03 at cycle   4 NSaved=   4.
 NSaved= 4 IEnMin= 4 EnMin= -154.127798322197     IErMin= 4 ErrMin= 1.51D-03
 ErrMax= 1.51D-03  0.00D+00 EMaxC= 1.00D-01 BMatC= 1.75D-04 BMatP= 5.22D-03
 IDIUse=3 WtCom= 9.85D-01 WtEn= 1.51D-02
 Coeff-Com: -0.841D-02 0.333D-01 0.223D+00 0.753D+00
 Coeff-En:   0.000D+00 0.000D+00 0.000D+00 0.100D+01
 Coeff:     -0.828D-02 0.328D-01 0.219D+00 0.756D+00
 Gap=     0.486 Goal=   None    Shift=    0.000
 RMSDP=9.56D-05 MaxDP=2.63D-03 DE=-3.62D-03 OVMax= 2.97D-03

 Cycle   5  Pass 1  IDiag  1:
 E= -154.127943522534     Delta-E=       -0.000145200336 Rises=F Damp=F
 DIIS: error= 4.19D-04 at cycle   5 NSaved=   5.
 NSaved= 5 IEnMin= 5 EnMin= -154.127943522534     IErMin= 5 ErrMin= 4.19D-04
 ErrMax= 4.19D-04  0.00D+00 EMaxC= 1.00D-01 BMatC= 9.23D-06 BMatP= 1.75D-04
 IDIUse=3 WtCom= 9.96D-01 WtEn= 4.19D-03
 Coeff-Com:  0.164D-02-0.220D-01-0.863D-01-0.854D-03 0.111D+01
 Coeff-En:   0.000D+00 0.000D+00 0.000D+00 0.000D+00 0.100D+01
 Coeff:      0.164D-02-0.219D-01-0.860D-01-0.851D-03 0.111D+01
 Gap=     0.486 Goal=   None    Shift=    0.000
 RMSDP=5.17D-05 MaxDP=6.20D-04 DE=-1.45D-04 OVMax= 1.60D-03

 Cycle   6  Pass 1  IDiag  1:
 E= -154.127959080955     Delta-E=       -0.000015558421 Rises=F Damp=F
 DIIS: error= 5.09D-05 at cycle   6 NSaved=   6.
 NSaved= 6 IEnMin= 6 EnMin= -154.127959080955     IErMin= 6 ErrMin= 5.09D-05
 ErrMax= 5.09D-05  0.00D+00 EMaxC= 1.00D-01 BMatC= 2.73D-07 BMatP= 9.23D-06
 IDIUse=1 WtCom= 1.00D+00 WtEn= 0.00D+00
 Coeff-Com:  0.432D-03-0.219D-02-0.108D-01-0.359D-01-0.256D-01 0.107D+01
 Coeff:      0.432D-03-0.219D-02-0.108D-01-0.359D-01-0.256D-01 0.107D+01
 Gap=     0.486 Goal=   None    Shift=    0.000
 RMSDP=1.11D-05 MaxDP=1.24D-04 DE=-1.56D-05 OVMax= 3.40D-04

 Cycle   7  Pass 1  IDiag  1:
 E= -154.127959713028     Delta-E=       -0.000000632074 Rises=F Damp=F
 DIIS: error= 1.70D-05 at cycle   7 NSaved=   7.
 NSaved= 7 IEnMin= 7 EnMin= -154.127959713028     IErMin= 7 ErrMin= 1.70D-05
 ErrMax= 1.70D-05  0.00D+00 EMaxC= 1.00D-01 BMatC= 1.46D-08 BMatP= 2.73D-07
 IDIUse=1 WtCom= 1.00D+00 WtEn= 0.00D+00
 Coeff-Com: -0.523D-04 0.785D-03 0.334D-02-0.147D-02-0.465D-01 0.313D-01
 Coeff-Com:  0.101D+01
 Coeff:     -0.523D-04 0.785D-03 0.334D-02-0.147D-02-0.465D-01 0.313D-01
 Coeff:      0.101D+01
 Gap=     0.486 Goal=   None    Shift=    0.000
 RMSDP=2.12D-06 MaxDP=2.75D-05 DE=-6.32D-07 OVMax= 7.40D-05

 Cycle   8  Pass 1  IDiag  1:
 E= -154.127959741431     Delta-E=       -0.000000028402 Rises=F Damp=F
 DIIS: error= 3.60D-06 at cycle   8 NSaved=   8.
 NSaved= 8 IEnMin= 8 EnMin= -154.127959741431     IErMin= 8 ErrMin= 3.60D-06
 ErrMax= 3.60D-06  0.00D+00 EMaxC= 1.00D-01 BMatC= 1.45D-09 BMatP= 1.46D-08
 IDIUse=1 WtCom= 1.00D+00 WtEn= 0.00D+00
 Coeff-Com: -0.399D-04 0.262D-03 0.121D-02 0.303D-02-0.763D-03-0.902D-01
 Coeff-Com:  0.477D-01 0.104D+01
 Coeff:     -0.399D-04 0.262D-03 0.121D-02 0.303D-02-0.763D-03-0.902D-01
 Coeff:      0.477D-01 0.104D+01
 Gap=     0.486 Goal=   None    Shift=    0.000
 RMSDP=6.25D-07 MaxDP=8.56D-06 DE=-2.84D-08 OVMax= 2.19D-05

 Cycle   9  Pass 1  IDiag  1:
 E= -154.127959744424     Delta-E=       -0.000000002993 Rises=F Damp=F
 DIIS: error= 9.83D-07 at cycle   9 NSaved=   9.
 NSaved= 9 IEnMin= 9 EnMin= -154.127959744424     IErMin= 9 ErrMin= 9.83D-07
 ErrMax= 9.83D-07  0.00D+00 EMaxC= 1.00D-01 BMatC= 8.83D-11 BMatP= 1.45D-09
 IDIUse=1 WtCom= 1.00D+00 WtEn= 0.00D+00
 Coeff-Com:  0.465D-05-0.594D-04-0.281D-03-0.223D-03 0.236D-02 0.988D-02
 Coeff-Com: -0.794D-01-0.969D-01 0.116D+01
 Coeff:      0.465D-05-0.594D-04-0.281D-03-0.223D-03 0.236D-02 0.988D-02
 Coeff:     -0.794D-01-0.969D-01 0.116D+01
 Gap=     0.486 Goal=   None    Shift=    0.000
 RMSDP=1.77D-07 MaxDP=2.66D-06 DE=-2.99D-09 OVMax= 6.83D-06

 Cycle  10  Pass 1  IDiag  1:
 E= -154.127959744646     Delta-E=       -0.000000000222 Rises=F Damp=F
 DIIS: error= 2.89D-07 at cycle  10 NSaved=  10.
 NSaved=10 IEnMin=10 EnMin= -154.127959744646     IErMin=10 ErrMin= 2.89D-07
 ErrMax= 2.89D-07  0.00D+00 EMaxC= 1.00D-01 BMatC= 3.97D-12 BMatP= 8.83D-11
 IDIUse=1 WtCom= 1.00D+00 WtEn= 0.00D+00
 Coeff-Com:  0.934D-06-0.109D-05-0.162D-05-0.135D-03-0.461D-03 0.340D-02
 Coeff-Com:  0.979D-02-0.357D-01-0.200D+00 0.122D+01
 Coeff:      0.934D-06-0.109D-05-0.162D-05-0.135D-03-0.461D-03 0.340D-02
 Coeff:      0.979D-02-0.357D-01-0.200D+00 0.122D+01
 Gap=     0.486 Goal=   None    Shift=    0.000
 RMSDP=4.55D-08 MaxDP=5.32D-07 DE=-2.22D-10 OVMax= 1.67D-06

 Cycle  11  Pass 1  IDiag  1:
 E= -154.127959744657     Delta-E=       -0.000000000012 Rises=F Damp=F
 DIIS: error= 4.94D-08 at cycle  11 NSaved=  11.
 NSaved=11 IEnMin=11 EnMin= -154.127959744657     IErMin=11 ErrMin= 4.94D-08
 ErrMax= 4.94D-08  0.00D+00 EMaxC= 1.00D-01 BMatC= 1.51D-13 BMatP= 3.97D-12
 IDIUse=1 WtCom= 1.00D+00 WtEn= 0.00D+00
 Coeff-Com: -0.395D-06 0.312D-05 0.137D-04 0.377D-04-0.212D-04-0.118D-02
 Coeff-Com:  0.189D-02 0.121D-01-0.167D-01-0.223D+00 0.123D+01
 Coeff:     -0.395D-06 0.312D-05 0.137D-04 0.377D-04-0.212D-04-0.118D-02
 Coeff:      0.189D-02 0.121D-01-0.167D-01-0.223D+00 0.123D+01
 Gap=     0.486 Goal=   None    Shift=    0.000
 RMSDP=8.21D-09 MaxDP=1.30D-07 DE=-1.15D-11 OVMax= 3.05D-07

 SCF Done:  E(RHF) =  -154.127959745     A.U. after   11 cycles
            NFock= 11  Conv=0.82D-08     -V/T= 2.0003
 KE= 1.540893634905D+02 PE=-5.254049101427D+02 EE= 1.354929641734D+02
 Leave Link  502 at Mon Oct 10 14:42:22 2022, MaxMem=   104857600 cpu:               2.6 elap:               0.4
 (Enter /usr/local/g16/l601.exe)
 Copying SCF densities to generalized density rwf, IOpCl= 0 IROHF=0.

 **********************************************************************

            Population analysis using the SCF density.

 **********************************************************************

 Orbital symmetries:
       Occupied  (A) (A) (A) (A) (A) (A) (A) (A) (A) (A) (A) (A)
                 (A)
       Virtual   (A) (A) (A) (A) (A) (A) (A) (A) (A) (A) (A) (A)
                 (A) (A) (A) (A) (A) (A) (A) (A) (A) (A) (A) (A)
                 (A) (A) (A) (A) (A) (A) (A) (A) (A) (A) (A) (A)
                 (A) (A) (A) (A) (A) (A) (A) (A) (A) (A) (A) (A)
                 (A) (A) (A) (A) (A) (A) (A) (A) (A) (A) (A) (A)
                 (A) (A) (A) (A) (A) (A) (A) (A) (A) (A) (A) (A)
                 (A) (A) (A) (A) (A) (A) (A) (A) (A) (A) (A) (A)
                 (A) (A) (A) (A) (A) (A) (A) (A) (A) (A) (A)
 The electronic state is 1-A.
 Alpha  occ. eigenvalues --  -20.55230 -11.27166 -11.20822  -1.35400  -1.01368
 Alpha  occ. eigenvalues --   -0.84481  -0.69768  -0.65124  -0.56886  -0.54063
 Alpha  occ. eigenvalues --   -0.53354  -0.48221  -0.44598
 Alpha virt. eigenvalues --    0.04042   0.05624   0.06522   0.06782   0.09070
 Alpha virt. eigenvalues --    0.09961   0.13741   0.15089   0.15289   0.16272
 Alpha virt. eigenvalues --    0.18384   0.19285   0.20393   0.20694   0.29017
 Alpha virt. eigenvalues --    0.30152   0.30789   0.32573   0.32993   0.35947
 Alpha virt. eigenvalues --    0.36938   0.38830   0.39649   0.41868   0.46095
 Alpha virt. eigenvalues --    0.50159   0.57367   0.58503   0.63057   0.63374
 Alpha virt. eigenvalues --    0.73025   0.78698   0.86501   0.86876   0.87993
 Alpha virt. eigenvalues --    0.88533   0.90141   0.94606   1.06876   1.14402
 Alpha virt. eigenvalues --    1.20632   1.22525   1.31777   1.40626   1.44965
 Alpha virt. eigenvalues --    1.51802   1.61942   1.62998   1.73943   1.75698
 Alpha virt. eigenvalues --    1.80741   1.82511   1.83201   1.84376   1.93050
 Alpha virt. eigenvalues --    1.93407   1.98793   2.03324   2.06476   2.14097
 Alpha virt. eigenvalues --    2.29684   2.32850   2.36010   2.41701   2.50447
 Alpha virt. eigenvalues --    2.60330   2.68900   2.73119   2.80127   2.87335
 Alpha virt. eigenvalues --    2.90224   2.90489   2.94552   2.99328   3.00044
 Alpha virt. eigenvalues --    3.00502   3.13729   3.24143   3.33855   3.48503
 Alpha virt. eigenvalues --    3.58202   3.60749   3.71357   4.24647   4.26804
 Alpha virt. eigenvalues --    4.28596   4.31193   4.42496   4.66750   5.60416
 Alpha virt. eigenvalues --    5.93603   6.23946  25.02775  25.19697  51.62215
          Condensed to atoms (all electrons):
               1          2          3          4          5          6
     1  C    4.994033   0.433038   0.433216   0.241585  -0.052642  -0.052694
     2  H    0.433038   0.644057  -0.062796  -0.066001  -0.004185   0.006777
     3  H    0.433216  -0.062796   0.643997  -0.066256   0.006792  -0.004166
     4  C    0.241585  -0.066001  -0.066256   5.203828   0.410964   0.411054
     5  H   -0.052642  -0.004185   0.006792   0.410964   0.568956  -0.035721
     6  H   -0.052694   0.006777  -0.004166   0.411054  -0.035721   0.568904
     7  H   -0.030979  -0.002041  -0.002030   0.385077  -0.035058  -0.035058
     8  O    0.202838  -0.054015  -0.054084  -0.142604  -0.000724  -0.000753
     9  H   -0.028797  -0.004466  -0.004393   0.009818   0.000253   0.000249
               7          8          9
     1  C   -0.030979   0.202838  -0.028797
     2  H   -0.002041  -0.054015  -0.004466
     3  H   -0.002030  -0.054084  -0.004393
     4  C    0.385077  -0.142604   0.009818
     5  H   -0.035058  -0.000724   0.000253
     6  H   -0.035058  -0.000753   0.000249
     7  H    0.586841   0.018920  -0.001028
     8  O    0.018920   8.096257   0.288345
     9  H   -0.001028   0.288345   0.476257
 Mulliken charges:
               1
     1  C   -0.139596
     2  H    0.109631
     3  H    0.109721
     4  C   -0.387464
     5  H    0.141364
     6  H    0.141408
     7  H    0.115355
     8  O   -0.354181
     9  H    0.263762
 Sum of Mulliken charges =  -0.00000
 Mulliken charges with hydrogens summed into heavy atoms:
               1
     1  C    0.079756
     4  C    0.010663
     8  O   -0.090418
 Electronic spatial extent (au):  <R**2>=            195.8198
 Charge=             -0.0000 electrons
 Dipole moment (field-independent basis, Debye):
    X=             -0.0173    Y=              1.9199    Z=              0.0031  Tot=              1.9200
 Quadrupole moment (field-independent basis, Debye-Ang):
   XX=            -17.1159   YY=            -20.8306   ZZ=            -20.0836
   XY=             -2.3041   XZ=             -0.0074   YZ=              0.0004
 Traceless Quadrupole moment (field-independent basis, Debye-Ang):
   XX=              2.2275   YY=             -1.4872   ZZ=             -0.7402
   XY=             -2.3041   XZ=             -0.0074   YZ=              0.0004
 Octapole moment (field-independent basis, Debye-Ang**2):
  XXX=            -15.8573  YYY=              0.0867  ZZZ=              0.0015  XYY=             -0.3303
  XXY=              3.4164  XXZ=              0.0150  XZZ=             -1.0821  YZZ=              0.0490
  YYZ=             -0.0002  XYZ=             -0.0002
 Hexadecapole moment (field-independent basis, Debye-Ang**3):
 XXXX=           -136.3453 YYYY=            -57.2393 ZZZZ=            -32.5919 XXXY=             -1.2634
 XXXZ=             -0.0337 YYYX=              0.1142 YYYZ=              0.0018 ZZZX=             -0.0041
 ZZZY=             -0.0001 XXYY=            -36.9933 XXZZ=            -33.8756 YYZZ=            -13.7504
 XXYZ=              0.0008 YYXZ=             -0.0017 ZZXY=             -1.2091
 N-N= 8.169462273412D+01 E-N=-5.254049103615D+02  KE= 1.540893634905D+02
 No NMR shielding tensors so no spin-rotation constants.
 Leave Link  601 at Mon Oct 10 14:42:22 2022, MaxMem=   104857600 cpu:               0.8 elap:               0.1
 (Enter /usr/local/g16/l701.exe)
 ... and contract with generalized density number  0.
 Compute integral first derivatives.
 Leave Link  701 at Mon Oct 10 14:42:22 2022, MaxMem=   104857600 cpu:               0.8 elap:               0.1
 (Enter /usr/local/g16/l702.exe)
 L702 exits ... SP integral derivatives will be done elsewhere.
 Leave Link  702 at Mon Oct 10 14:42:22 2022, MaxMem=   104857600 cpu:               0.1 elap:               0.0
 (Enter /usr/local/g16/l703.exe)
 Integral derivatives from FoFJK, PRISM(SPDF).
 Compute integral first derivatives, UseDBF=F ICtDFT=           0.
 Calling FoFJK, ICntrl=      2127 FMM=F ISym2X=0 I1Cent= 0 IOpClX= 0 NMat=1 NMatS=1 NMatT=0.
 FoFJK:  IHMeth= 1 ICntrl=    2127 DoSepK=F KAlg= 0 I1Cent=           0 FoldK=F
 IRaf=         0 NMat=       1 IRICut=       1 DoRegI=T DoRafI=F ISym2E= 0 IDoP0=0 IntGTp=1.
 FoFCou: FMM=F IPFlag=           0 FMFlag=      100000 FMFlg1=         800
         NFxFlg=           0 DoJE=F BraDBF=F KetDBF=F FulRan=T
         wScrn=  0.000000 ICntrl=      2127 IOpCl=  0 I1Cent=           0 NGrid=           0
         NMat0=    1 NMatS0=      1 NMatT0=    0 NMatD0=    1 NMtDS0=    0 NMtDT0=    0
 Symmetry not used in FoFCou.
 Leave Link  703 at Mon Oct 10 14:42:22 2022, MaxMem=   104857600 cpu:               2.1 elap:               0.2
 (Enter /usr/local/g16/l716.exe)
 Dipole        =-6.80050000D-03 7.55353664D-01 1.21119034D-03
 ***** Axes restored to original set *****
 -------------------------------------------------------------------
 Center     Atomic                   Forces (Hartrees/Bohr)
 Number     Number              X              Y              Z
 -------------------------------------------------------------------
      1        6          -0.022142247    0.001524372   -0.015655152
      2        1           0.001916418    0.000113945    0.012266377
      3        1           0.012204034    0.000121335   -0.002281102
      4        6           0.010043346    0.026494502    0.007105744
      5        1          -0.010349865   -0.001620385    0.002314601
      6        1          -0.001268492   -0.001618580   -0.010529807
      7        1           0.004919959   -0.009806877    0.003474914
      8        8           0.014827797    0.003187892    0.010540573
      9        1          -0.010150949   -0.018396204   -0.007236148
 -------------------------------------------------------------------
 Cartesian Forces:  Max     0.026494502 RMS     0.010709861
 Leave Link  716 at Mon Oct 10 14:42:22 2022, MaxMem=   104857600 cpu:               0.2 elap:               0.0
 (Enter /usr/local/g16/l103.exe)

 GradGradGradGradGradGradGradGradGradGradGradGradGradGradGradGradGradGrad
 Berny optimization.
 FormGI is forming the generalized inverse of G from B-inverse, IUseBI=4.
 Internal  Forces:  Max     0.022217960 RMS     0.007140951
 Search for a local minimum.
 Step number   1 out of a maximum of   43
 All quantities printed in internal units (Hartrees-Bohrs-Radians)
 RMS Force = .71410D-02 SwitMx=.10000D-02 MixMth= 1
 Mixed Optimization -- RFO/linear search
 Second derivative matrix not updated -- first step.
 ITU=  0
     Eigenvalues ---    0.00237   0.01295   0.05139   0.05720   0.05720
     Eigenvalues ---    0.05816   0.11239   0.13704   0.16000   0.16000
     Eigenvalues ---    0.16000   0.16000   0.22071   0.28519   0.37230
     Eigenvalues ---    0.37230   0.37230   0.37230   0.37230   0.40989
     Eigenvalues ---    0.55473
 RFO step:  Lambda=-4.35482331D-03 EMin= 2.36824211D-03
 Linear search not attempted -- first point.
 Iteration  1 RMS(Cart)=  0.02896239 RMS(Int)=  0.00024014
 Iteration  2 RMS(Cart)=  0.00025507 RMS(Int)=  0.00004783
 Iteration  3 RMS(Cart)=  0.00000009 RMS(Int)=  0.00004783
 ITry= 1 IFail=0 DXMaxC= 8.44D-02 DCOld= 1.00D+10 DXMaxT= 3.00D-01 DXLimC= 3.00D+00 Rises=F
 Variable       Old X    -DE/DX   Delta X   Delta X   Delta X     New X
                                 (Linear)    (Quad)   (Total)
    R1        2.02201   0.01227   0.00000   0.03257   0.03257   2.05457
    R2        2.02201   0.01227   0.00000   0.03257   0.03257   2.05457
    R3        2.91018  -0.01335   0.00000  -0.04609  -0.04609   2.86408
    R4        2.70231  -0.01572   0.00000  -0.03796  -0.03796   2.66435
    R5        2.02201   0.01053   0.00000   0.02796   0.02796   2.04996
    R6        2.02201   0.01053   0.00000   0.02796   0.02796   2.04996
    R7        2.02201   0.01148   0.00000   0.03049   0.03049   2.05250
    R8        1.81414  -0.02222   0.00000  -0.03974  -0.03974   1.77440
    A1        1.91063  -0.00215   0.00000  -0.01207  -0.01218   1.89846
    A2        1.91063   0.00248   0.00000   0.01224   0.01226   1.92289
    A3        1.91063   0.00246   0.00000   0.01067   0.01074   1.92137
    A4        1.91063   0.00248   0.00000   0.01225   0.01226   1.92290
    A5        1.91063   0.00246   0.00000   0.01061   0.01068   1.92131
    A6        1.91063  -0.00773   0.00000  -0.03370  -0.03360   1.87703
    A7        1.91063   0.00234   0.00000   0.01448   0.01441   1.92504
    A8        1.91063   0.00234   0.00000   0.01446   0.01439   1.92502
    A9        1.91063   0.00019   0.00000   0.00070   0.00068   1.91132
   A10        1.91063  -0.00223   0.00000  -0.01272  -0.01284   1.89779
   A11        1.91063  -0.00132   0.00000  -0.00845  -0.00846   1.90217
   A12        1.91063  -0.00132   0.00000  -0.00847  -0.00848   1.90215
   A13        1.91114  -0.00078   0.00000  -0.00476  -0.00476   1.90637
    D1        1.04700  -0.00027   0.00000  -0.00114  -0.00121   1.04579
    D2        3.14140  -0.00014   0.00000   0.00101   0.00100  -3.14079
    D3       -1.04739  -0.00020   0.00000  -0.00008  -0.00013  -1.04752
    D4        3.14140   0.00014   0.00000  -0.00092  -0.00091   3.14049
    D5       -1.04739   0.00027   0.00000   0.00122   0.00129  -1.04610
    D6        1.04700   0.00020   0.00000   0.00013   0.00017   1.04718
    D7       -1.04739  -0.00007   0.00000  -0.00106  -0.00109  -1.04849
    D8        1.04700   0.00007   0.00000   0.00108   0.00111   1.04812
    D9        3.14140  -0.00000   0.00000  -0.00001  -0.00001   3.14139
   D10        1.04526   0.00020   0.00000  -0.00064  -0.00060   1.04466
   D11       -1.04914  -0.00019   0.00000   0.00111   0.00107  -1.04806
   D12        3.13965   0.00000   0.00000   0.00025   0.00025   3.13990
         Item               Value     Threshold  Converged?
 Maximum Force            0.022218     0.000015     NO 
 RMS     Force            0.007141     0.000010     NO 
 Maximum Displacement     0.084417     0.000060     NO 
 RMS     Displacement     0.028854     0.000040     NO 
 Predicted change in Energy=-2.204536D-03
 Lowest energy point so far.  Saving SCF results.
 GradGradGradGradGradGradGradGradGradGradGradGradGradGradGradGradGradGrad

 Leave Link  103 at Mon Oct 10 14:42:22 2022, MaxMem=   104857600 cpu:               0.2 elap:               0.0
 (Enter /usr/local/g16/l202.exe)
                          Input orientation:                          
 ---------------------------------------------------------------------
 Center     Atomic      Atomic             Coordinates (Angstroms)
 Number     Number       Type             X           Y           Z
 ---------------------------------------------------------------------
      1          6           0        0.005044   -0.002489    0.003617
      2          1           0        0.011689    0.001014    1.090824
      3          1           0        1.032266    0.001104   -0.352584
      4          6           0       -0.722228   -1.228721   -0.510676
      5          1           0       -1.747205   -1.234883   -0.155484
      6          1           0       -0.729331   -1.234622   -1.595431
      7          1           0       -0.219855   -2.123890   -0.155734
      8          8           0       -0.679071    1.131477   -0.480083
      9          1           0       -0.247761    1.907032   -0.173243
 ---------------------------------------------------------------------
                    Distance matrix (angstroms):
                    1          2          3          4          5
     1  C    0.000000
     2  H    1.087233   0.000000
     3  H    1.087234   1.767768   0.000000
     4  C    1.515608   2.148415   2.148421   0.000000
     5  H    2.148135   2.484841   3.048273   1.084793   0.000000
     6  H    2.148118   3.048257   2.484937   1.084794   1.763381
     7  H    2.139233   2.474417   2.474299   1.086136   1.767239
     8  O    1.409914   2.054956   2.054914   2.360791   2.616474
     9  H    1.934285   2.301757   2.302866   3.189347   3.481420
                    6          7          8          9
     6  H    0.000000
     7  H    1.767227   0.000000
     8  O    2.616285   3.303559   0.000000
     9  H    3.482028   4.031057   0.938971   0.000000
 Stoichiometry    C2H6O
 Framework group  C1[X(C2H6O)]
 Deg. of freedom    21
 Full point group                 C1      NOp   1
 RotChk:  IX=0 Diff= 6.02D-04
 Largest Abelian subgroup         C1      NOp   1
 Largest concise Abelian subgroup C1      NOp   1
                         Standard orientation:                         
 ---------------------------------------------------------------------
 Center     Atomic      Atomic             Coordinates (Angstroms)
 Number     Number       Type             X           Y           Z
 ---------------------------------------------------------------------
      1          6           0       -0.089535    0.548204   -0.000074
      2          1           0       -0.153650    1.178104    0.883776
      3          1           0       -0.153500    1.178024   -0.883992
      4          6           0        1.216218   -0.221264    0.000078
      5          1           0        1.282621   -0.849594    0.881876
      6          1           0        1.282619   -0.849897   -0.881505
      7          1           0        2.048499    0.476589   -0.000055
      8          8           0       -1.138232   -0.394182   -0.000170
      9          1           0       -1.960827    0.058589    0.001234
 ---------------------------------------------------------------------
 Rotational constants (GHZ):          35.5666423           9.5125611           8.2776295
 Leave Link  202 at Mon Oct 10 14:42:22 2022, MaxMem=   104857600 cpu:               0.0 elap:               0.0
 (Enter /usr/local/g16/l301.exe)
 Standard basis: 6-311++G(d,p) (5D, 7F)
 Ernie: Thresh=  0.10000D-02 Tol=  0.10000D-05 Strict=F.
 There are   111 symmetry adapted cartesian basis functions of A   symmetry.
 There are   108 symmetry adapted basis functions of A   symmetry.
   108 basis functions,   162 primitive gaussians,   111 cartesian basis functions
    13 alpha electrons       13 beta electrons
       nuclear repulsion energy        82.4356000087 Hartrees.
 IExCor=    0 DFT=F Ex=HF Corr=None ExCW=0 ScaHFX=  1.000000
 ScaDFX=  1.000000  1.000000  1.000000  1.000000 ScalE2=  1.000000  1.000000
 IRadAn=      5 IRanWt=     -1 IRanGd=            0 ICorTp=0 IEmpDi=  4
 NAtoms=    9 NActive=    9 NUniq=    9 SFac= 1.00D+00 NAtFMM=   60 NAOKFM=F Big=F
 Integral buffers will be    131072 words long.
 Raffenetti 1 integral format.
 Two-electron integral symmetry is turned on.
 Leave Link  301 at Mon Oct 10 14:42:23 2022, MaxMem=   104857600 cpu:               0.3 elap:               0.0
 (Enter /usr/local/g16/l302.exe)
 NPDir=0 NMtPBC=     1 NCelOv=     1 NCel=       1 NClECP=     1 NCelD=      1
         NCelK=      1 NCelE2=     1 NClLst=     1 CellRange=     0.0.
 One-electron integrals computed using PRISM.
 One-electron integral symmetry used in STVInt
 NBasis=   108 RedAO= T EigKep=  1.11D-04  NBF=   108
 NBsUse=   108 1.00D-06 EigRej= -1.00D+00 NBFU=   108
 Leave Link  302 at Mon Oct 10 14:42:23 2022, MaxMem=   104857600 cpu:               0.8 elap:               0.1
 (Enter /usr/local/g16/l303.exe)
 DipDrv:  MaxL=1.
 Leave Link  303 at Mon Oct 10 14:42:23 2022, MaxMem=   104857600 cpu:               0.1 elap:               0.0
 (Enter /usr/local/g16/l401.exe)
 Initial guess from the checkpoint file:  "c2h5oh.chk"
 B after Tr=    -0.000000   -0.000000   -0.000000
         Rot=    1.000000   -0.000006   -0.000002   -0.000965 Ang=  -0.11 deg.
 Guess basis will be translated and rotated to current coordinates.
 JPrj=2 DoOrth=T DoCkMO=T.
 Generating alternative initial guess.
 ExpMin= 3.60D-02 ExpMax= 8.59D+03 ExpMxC= 1.30D+03 IAcc=3 IRadAn=         5 AccDes= 0.00D+00
 Harris functional with IExCor=  205 and IRadAn=       5 diagonalized for initial guess.
 HarFok:  IExCor=  205 AccDes= 0.00D+00 IRadAn=         5 IDoV= 1 UseB2=F ITyADJ=14
 ICtDFT=  3500011 ScaDFX=  1.000000  1.000000  1.000000  1.000000
 FoFCou: FMM=F IPFlag=           0 FMFlag=      100000 FMFlg1=           0
         NFxFlg=           0 DoJE=T BraDBF=F KetDBF=T FulRan=T
         wScrn=  0.000000 ICntrl=       500 IOpCl=  0 I1Cent=   200000004 NGrid=           0
         NMat0=    1 NMatS0=      1 NMatT0=    0 NMatD0=    1 NMtDS0=    0 NMtDT0=    0
 Petite list used in FoFCou.
 Harris En= -154.416927828987    
 Leave Link  401 at Mon Oct 10 14:42:23 2022, MaxMem=   104857600 cpu:               1.9 elap:               0.2
 (Enter /usr/local/g16/l502.exe)
 Keep R1 ints in memory in canonical form, NReq=19882771.
 FoFCou: FMM=F IPFlag=           0 FMFlag=           0 FMFlg1=           0
         NFxFlg=           0 DoJE=F BraDBF=F KetDBF=F FulRan=T
         wScrn=  0.000000 ICntrl=       600 IOpCl=  0 I1Cent=           0 NGrid=           0
         NMat0=    1 NMatS0=   5886 NMatT0=    0 NMatD0=    1 NMtDS0=    0 NMtDT0=    0
 Symmetry not used in FoFCou.
 Two-electron integral symmetry not used.
 Closed shell SCF:
 Using DIIS extrapolation, IDIIS=  1040.
 NGot=   104857600 LenX=    87504912 LenY=    87492150
 Requested convergence on RMS density matrix=1.00D-08 within 128 cycles.
 Requested convergence on MAX density matrix=1.00D-06.
 Requested convergence on             energy=1.00D-06.
 No special actions if energy rises.

 Cycle   1  Pass 1  IDiag  1:
 E= -154.129174138700    
 DIIS: error= 2.00D-03 at cycle   1 NSaved=   1.
 NSaved= 1 IEnMin= 1 EnMin= -154.129174138700     IErMin= 1 ErrMin= 2.00D-03
 ErrMax= 2.00D-03  0.00D+00 EMaxC= 1.00D-01 BMatC= 9.12D-04 BMatP= 9.12D-04
 IDIUse=3 WtCom= 9.80D-01 WtEn= 2.00D-02
 Coeff-Com:  0.100D+01
 Coeff-En:   0.100D+01
 Coeff:      0.100D+01
 Gap=     0.677 Goal=   None    Shift=    0.000
 GapD=    0.677 DampG=2.000 DampE=1.000 DampFc=2.0000 IDamp=-1.
 RMSDP=2.98D-04 MaxDP=3.93D-03              OVMax= 6.89D-03

 Cycle   2  Pass 1  IDiag  1:
 E= -154.130024030156     Delta-E=       -0.000849891456 Rises=F Damp=F
 DIIS: error= 6.16D-04 at cycle   2 NSaved=   2.
 NSaved= 2 IEnMin= 2 EnMin= -154.130024030156     IErMin= 2 ErrMin= 6.16D-04
 ErrMax= 6.16D-04  0.00D+00 EMaxC= 1.00D-01 BMatC= 4.96D-05 BMatP= 9.12D-04
 IDIUse=3 WtCom= 9.94D-01 WtEn= 6.16D-03
 Coeff-Com: -0.817D-01 0.108D+01
 Coeff-En:   0.000D+00 0.100D+01
 Coeff:     -0.812D-01 0.108D+01
 Gap=     0.483 Goal=   None    Shift=    0.000
 RMSDP=8.89D-05 MaxDP=1.54D-03 DE=-8.50D-04 OVMax= 2.81D-03

 Cycle   3  Pass 1  IDiag  1:
 E= -154.130089284083     Delta-E=       -0.000065253928 Rises=F Damp=F
 DIIS: error= 2.89D-04 at cycle   3 NSaved=   3.
 NSaved= 3 IEnMin= 3 EnMin= -154.130089284083     IErMin= 3 ErrMin= 2.89D-04
 ErrMax= 2.89D-04  0.00D+00 EMaxC= 1.00D-01 BMatC= 9.61D-06 BMatP= 4.96D-05
 IDIUse=3 WtCom= 9.97D-01 WtEn= 2.89D-03
 Coeff-Com: -0.636D-01 0.265D+00 0.799D+00
 Coeff-En:   0.000D+00 0.000D+00 0.100D+01
 Coeff:     -0.634D-01 0.264D+00 0.799D+00
 Gap=     0.484 Goal=   None    Shift=    0.000
 RMSDP=2.57D-05 MaxDP=5.93D-04 DE=-6.53D-05 OVMax= 9.07D-04

 Cycle   4  Pass 1  IDiag  1:
 E= -154.130099165224     Delta-E=       -0.000009881140 Rises=F Damp=F
 DIIS: error= 1.21D-04 at cycle   4 NSaved=   4.
 NSaved= 4 IEnMin= 4 EnMin= -154.130099165224     IErMin= 4 ErrMin= 1.21D-04
 ErrMax= 1.21D-04  0.00D+00 EMaxC= 1.00D-01 BMatC= 7.96D-07 BMatP= 9.61D-06
 IDIUse=3 WtCom= 9.99D-01 WtEn= 1.21D-03
 Coeff-Com:  0.424D-02-0.994D-01 0.674D-01 0.103D+01
 Coeff-En:   0.000D+00 0.000D+00 0.000D+00 0.100D+01
 Coeff:      0.423D-02-0.992D-01 0.673D-01 0.103D+01
 Gap=     0.484 Goal=   None    Shift=    0.000
 RMSDP=1.30D-05 MaxDP=2.10D-04 DE=-9.88D-06 OVMax= 4.58D-04

 Cycle   5  Pass 1  IDiag  1:
 E= -154.130100460266     Delta-E=       -0.000001295042 Rises=F Damp=F
 DIIS: error= 2.08D-05 at cycle   5 NSaved=   5.
 NSaved= 5 IEnMin= 5 EnMin= -154.130100460266     IErMin= 5 ErrMin= 2.08D-05
 ErrMax= 2.08D-05  0.00D+00 EMaxC= 1.00D-01 BMatC= 4.94D-08 BMatP= 7.96D-07
 IDIUse=1 WtCom= 1.00D+00 WtEn= 0.00D+00
 Coeff-Com:  0.400D-02-0.273D-01-0.398D-01 0.869D-01 0.976D+00
 Coeff:      0.400D-02-0.273D-01-0.398D-01 0.869D-01 0.976D+00
 Gap=     0.484 Goal=   None    Shift=    0.000
 RMSDP=3.65D-06 MaxDP=5.23D-05 DE=-1.30D-06 OVMax= 1.43D-04

 Cycle   6  Pass 1  IDiag  1:
 E= -154.130100560057     Delta-E=       -0.000000099790 Rises=F Damp=F
 DIIS: error= 1.11D-05 at cycle   6 NSaved=   6.
 NSaved= 6 IEnMin= 6 EnMin= -154.130100560057     IErMin= 6 ErrMin= 1.11D-05
 ErrMax= 1.11D-05  0.00D+00 EMaxC= 1.00D-01 BMatC= 5.07D-09 BMatP= 4.94D-08
 IDIUse=1 WtCom= 1.00D+00 WtEn= 0.00D+00
 Coeff-Com: -0.505D-03 0.106D-01-0.675D-02-0.115D+00 0.234D-01 0.109D+01
 Coeff:     -0.505D-03 0.106D-01-0.675D-02-0.115D+00 0.234D-01 0.109D+01
 Gap=     0.484 Goal=   None    Shift=    0.000
 RMSDP=1.31D-06 MaxDP=1.81D-05 DE=-9.98D-08 OVMax= 5.21D-05

 Cycle   7  Pass 1  IDiag  1:
 E= -154.130100571247     Delta-E=       -0.000000011191 Rises=F Damp=F
 DIIS: error= 2.04D-06 at cycle   7 NSaved=   7.
 NSaved= 7 IEnMin= 7 EnMin= -154.130100571247     IErMin= 7 ErrMin= 2.04D-06
 ErrMax= 2.04D-06  0.00D+00 EMaxC= 1.00D-01 BMatC= 2.26D-10 BMatP= 5.07D-09
 IDIUse=1 WtCom= 1.00D+00 WtEn= 0.00D+00
 Coeff-Com: -0.126D-03-0.491D-03 0.376D-02 0.192D-01-0.679D-01-0.216D+00
 Coeff-Com:  0.126D+01
 Coeff:     -0.126D-03-0.491D-03 0.376D-02 0.192D-01-0.679D-01-0.216D+00
 Coeff:      0.126D+01
 Gap=     0.484 Goal=   None    Shift=    0.000
 RMSDP=3.68D-07 MaxDP=4.87D-06 DE=-1.12D-08 OVMax= 1.17D-05

 Cycle   8  Pass 1  IDiag  1:
 E= -154.130100571831     Delta-E=       -0.000000000583 Rises=F Damp=F
 DIIS: error= 3.39D-07 at cycle   8 NSaved=   8.
 NSaved= 8 IEnMin= 8 EnMin= -154.130100571831     IErMin= 8 ErrMin= 3.39D-07
 ErrMax= 3.39D-07  0.00D+00 EMaxC= 1.00D-01 BMatC= 6.03D-12 BMatP= 2.26D-10
 IDIUse=1 WtCom= 1.00D+00 WtEn= 0.00D+00
 Coeff-Com:  0.467D-04-0.358D-03-0.381D-03 0.136D-02 0.110D-01-0.605D-02
 Coeff-Com: -0.216D+00 0.121D+01
 Coeff:      0.467D-04-0.358D-03-0.381D-03 0.136D-02 0.110D-01-0.605D-02
 Coeff:     -0.216D+00 0.121D+01
 Gap=     0.484 Goal=   None    Shift=    0.000
 RMSDP=6.45D-08 MaxDP=7.35D-07 DE=-5.83D-10 OVMax= 1.72D-06

 Cycle   9  Pass 1  IDiag  1:
 E= -154.130100571845     Delta-E=       -0.000000000015 Rises=F Damp=F
 DIIS: error= 4.46D-08 at cycle   9 NSaved=   9.
 NSaved= 9 IEnMin= 9 EnMin= -154.130100571845     IErMin= 9 ErrMin= 4.46D-08
 ErrMax= 4.46D-08  0.00D+00 EMaxC= 1.00D-01 BMatC= 1.69D-13 BMatP= 6.03D-12
 IDIUse=1 WtCom= 1.00D+00 WtEn= 0.00D+00
 Coeff-Com:  0.781D-06 0.307D-04-0.773D-04-0.586D-03 0.113D-02 0.625D-02
 Coeff-Com: -0.185D-01-0.925D-01 0.110D+01
 Coeff:      0.781D-06 0.307D-04-0.773D-04-0.586D-03 0.113D-02 0.625D-02
 Coeff:     -0.185D-01-0.925D-01 0.110D+01
 Gap=     0.484 Goal=   None    Shift=    0.000
 RMSDP=1.01D-08 MaxDP=9.42D-08 DE=-1.48D-11 OVMax= 1.97D-07

 Cycle  10  Pass 1  IDiag  1:
 E= -154.130100571846     Delta-E=       -0.000000000001 Rises=F Damp=F
 DIIS: error= 1.50D-08 at cycle  10 NSaved=  10.
 NSaved=10 IEnMin=10 EnMin= -154.130100571846     IErMin=10 ErrMin= 1.50D-08
 ErrMax= 1.50D-08  0.00D+00 EMaxC= 1.00D-01 BMatC= 1.76D-14 BMatP= 1.69D-13
 IDIUse=1 WtCom= 1.00D+00 WtEn= 0.00D+00
 Coeff-Com: -0.198D-05 0.249D-04 0.311D-05-0.191D-03-0.354D-03 0.162D-02
 Coeff-Com:  0.773D-02-0.844D-01 0.199D+00 0.876D+00
 Coeff:     -0.198D-05 0.249D-04 0.311D-05-0.191D-03-0.354D-03 0.162D-02
 Coeff:      0.773D-02-0.844D-01 0.199D+00 0.876D+00
 Gap=     0.484 Goal=   None    Shift=    0.000
 RMSDP=2.39D-09 MaxDP=4.59D-08 DE=-6.82D-13 OVMax= 4.93D-08

 SCF Done:  E(RHF) =  -154.130100572     A.U. after   10 cycles
            NFock= 10  Conv=0.24D-08     -V/T= 2.0002
 KE= 1.541028045618D+02 PE=-5.268681260197D+02 EE= 1.361996208773D+02
 Leave Link  502 at Mon Oct 10 14:42:23 2022, MaxMem=   104857600 cpu:               2.7 elap:               0.4
 (Enter /usr/local/g16/l701.exe)
 ... and contract with generalized density number  0.
 Compute integral first derivatives.
 Leave Link  701 at Mon Oct 10 14:42:23 2022, MaxMem=   104857600 cpu:               0.9 elap:               0.1
 (Enter /usr/local/g16/l702.exe)
 L702 exits ... SP integral derivatives will be done elsewhere.
 Leave Link  702 at Mon Oct 10 14:42:23 2022, MaxMem=   104857600 cpu:               0.1 elap:               0.0
 (Enter /usr/local/g16/l703.exe)
 Integral derivatives from FoFJK, PRISM(SPDF).
 Compute integral first derivatives, UseDBF=F ICtDFT=           0.
 Calling FoFJK, ICntrl=      2127 FMM=F ISym2X=0 I1Cent= 0 IOpClX= 0 NMat=1 NMatS=1 NMatT=0.
 FoFJK:  IHMeth= 1 ICntrl=    2127 DoSepK=F KAlg= 0 I1Cent=           0 FoldK=F
 IRaf=         0 NMat=       1 IRICut=       1 DoRegI=T DoRafI=F ISym2E= 0 IDoP0=0 IntGTp=1.
 FoFCou: FMM=F IPFlag=           0 FMFlag=      100000 FMFlg1=         800
         NFxFlg=           0 DoJE=F BraDBF=F KetDBF=F FulRan=T
         wScrn=  0.000000 ICntrl=      2127 IOpCl=  0 I1Cent=           0 NGrid=           0
         NMat0=    1 NMatS0=      1 NMatT0=    0 NMatD0=    1 NMtDS0=    0 NMtDT0=    0
 Symmetry not used in FoFCou.
 Leave Link  703 at Mon Oct 10 14:42:24 2022, MaxMem=   104857600 cpu:               2.1 elap:               0.2
 (Enter /usr/local/g16/l716.exe)
 Dipole        =-5.23880735D-02 7.24210833D-01 1.04680877D-03
 ***** Axes restored to original set *****
 -------------------------------------------------------------------
 Center     Atomic                   Forces (Hartrees/Bohr)
 Number     Number              X              Y              Z
 -------------------------------------------------------------------
      1        6          -0.006946561    0.001371085   -0.004919458
      2        1           0.001379261   -0.000273996    0.000694096
      3        1           0.001116608   -0.000275106    0.001073443
      4        6           0.003261033    0.000400813    0.002303390
      5        1           0.000079574   -0.000419638   -0.000307981
      6        1          -0.000263412   -0.000420087    0.000177162
      7        1          -0.001144230   -0.001512907   -0.000808934
      8        8           0.003121740   -0.001224109    0.002223643
      9        1          -0.000604013    0.002353946   -0.000435361
 -------------------------------------------------------------------
 Cartesian Forces:  Max     0.006946561 RMS     0.002129693
 Leave Link  716 at Mon Oct 10 14:42:24 2022, MaxMem=   104857600 cpu:               0.1 elap:               0.0
 (Enter /usr/local/g16/l103.exe)

 GradGradGradGradGradGradGradGradGradGradGradGradGradGradGradGradGradGrad
 Berny optimization.
 Using GEDIIS/GDIIS optimizer.
 FormGI is forming the generalized inverse of G from B-inverse, IUseBI=4.
 Internal  Forces:  Max     0.003542188 RMS     0.001212331
 Search for a local minimum.
 Step number   2 out of a maximum of   43
 All quantities printed in internal units (Hartrees-Bohrs-Radians)
 RMS Force = .12123D-02 SwitMx=.10000D-02 MixMth= 1
 Mixed Optimization -- RFO/linear search
 Update second derivatives using D2CorX and points    1    2
 DE= -2.14D-03 DEPred=-2.20D-03 R= 9.71D-01
 TightC=F SS=  1.41D+00  RLast= 1.11D-01 DXNew= 5.0454D-01 3.3300D-01
 Trust test= 9.71D-01 RLast= 1.11D-01 DXMaxT set to 3.33D-01
 ITU=  1  0
 Use linear search instead of GDIIS.
     Eigenvalues ---    0.00237   0.01295   0.05297   0.05581   0.05653
     Eigenvalues ---    0.05724   0.11032   0.13574   0.15277   0.16000
     Eigenvalues ---    0.16000   0.16245   0.23180   0.29036   0.36483
     Eigenvalues ---    0.37230   0.37230   0.37230   0.37597   0.40568
     Eigenvalues ---    0.57205
 RFO step:  Lambda=-3.03769192D-04 EMin= 2.36824210D-03
 Quartic linear search produced a step of -0.02457.
 Iteration  1 RMS(Cart)=  0.00866290 RMS(Int)=  0.00006153
 Iteration  2 RMS(Cart)=  0.00008740 RMS(Int)=  0.00003142
 Iteration  3 RMS(Cart)=  0.00000000 RMS(Int)=  0.00003142
 ITry= 1 IFail=0 DXMaxC= 2.77D-02 DCOld= 1.00D+10 DXMaxT= 3.33D-01 DXLimC= 3.00D+00 Rises=F
 Variable       Old X    -DE/DX   Delta X   Delta X   Delta X     New X
                                 (Linear)    (Quad)   (Total)
    R1        2.05457   0.00070  -0.00080   0.00494   0.00414   2.05871
    R2        2.05457   0.00070  -0.00080   0.00494   0.00414   2.05872
    R3        2.86408   0.00019   0.00113  -0.00376  -0.00263   2.86146
    R4        2.66435  -0.00093   0.00093  -0.00582  -0.00489   2.65947
    R5        2.04996  -0.00017  -0.00069   0.00221   0.00152   2.05149
    R6        2.04996  -0.00017  -0.00069   0.00221   0.00153   2.05149
    R7        2.05250   0.00045  -0.00075   0.00409   0.00334   2.05584
    R8        1.77440   0.00152   0.00098  -0.00110  -0.00012   1.77427
    A1        1.89846  -0.00061   0.00030  -0.01784  -0.01758   1.88088
    A2        1.92289  -0.00062  -0.00030  -0.00164  -0.00201   1.92087
    A3        1.92137  -0.00084  -0.00026   0.00241   0.00210   1.92347
    A4        1.92290  -0.00062  -0.00030  -0.00165  -0.00203   1.92087
    A5        1.92131  -0.00084  -0.00026   0.00245   0.00214   1.92345
    A6        1.87703   0.00354   0.00083   0.01669   0.01744   1.89447
    A7        1.92504   0.00011  -0.00035   0.00121   0.00084   1.92588
    A8        1.92502   0.00011  -0.00035   0.00121   0.00084   1.92586
    A9        1.91132   0.00280  -0.00002   0.01879   0.01873   1.93004
   A10        1.89779  -0.00049   0.00032  -0.00748  -0.00716   1.89063
   A11        1.90217  -0.00130   0.00021  -0.00707  -0.00691   1.89527
   A12        1.90215  -0.00130   0.00021  -0.00707  -0.00691   1.89524
   A13        1.90637   0.00345   0.00012   0.02050   0.02062   1.92699
    D1        1.04579   0.00100   0.00003   0.01604   0.01608   1.06188
    D2       -3.14079   0.00054  -0.00002   0.00828   0.00824  -3.13255
    D3       -1.04752   0.00077   0.00000   0.01216   0.01216  -1.03536
    D4        3.14049  -0.00054   0.00002  -0.00820  -0.00816   3.13233
    D5       -1.04610  -0.00100  -0.00003  -0.01595  -0.01599  -1.06209
    D6        1.04718  -0.00077  -0.00000  -0.01208  -0.01208   1.03510
    D7       -1.04849   0.00023   0.00003   0.00394   0.00398  -1.04450
    D8        1.04812  -0.00023  -0.00003  -0.00382  -0.00386   1.04426
    D9        3.14139   0.00000   0.00000   0.00006   0.00006   3.14145
   D10        1.04466  -0.00091   0.00001  -0.00915  -0.00917   1.03549
   D11       -1.04806   0.00092  -0.00003   0.00988   0.00989  -1.03817
   D12        3.13990   0.00001  -0.00001   0.00036   0.00036   3.14026
         Item               Value     Threshold  Converged?
 Maximum Force            0.003542     0.000015     NO 
 RMS     Force            0.001212     0.000010     NO 
 Maximum Displacement     0.027680     0.000060     NO 
 RMS     Displacement     0.008607     0.000040     NO 
 Predicted change in Energy=-1.537891D-04
 Lowest energy point so far.  Saving SCF results.
 GradGradGradGradGradGradGradGradGradGradGradGradGradGradGradGradGradGrad

 Leave Link  103 at Mon Oct 10 14:42:24 2022, MaxMem=   104857600 cpu:               0.3 elap:               0.0
 (Enter /usr/local/g16/l202.exe)
                          Input orientation:                          
 ---------------------------------------------------------------------
 Center     Atomic      Atomic             Coordinates (Angstroms)
 Number     Number       Type             X           Y           Z
 ---------------------------------------------------------------------
      1          6           0       -0.000353    0.000425   -0.000154
      2          1           0        0.015913    0.000527    1.089149
      3          1           0        1.032037    0.000691   -0.348034
      4          6           0       -0.719414   -1.231319   -0.508692
      5          1           0       -1.746389   -1.241023   -0.156903
      6          1           0       -0.730361   -1.240722   -1.594197
      7          1           0       -0.224467   -2.134809   -0.159018
      8          8           0       -0.674044    1.140574   -0.476363
      9          1           0       -0.249374    1.921680   -0.174582
 ---------------------------------------------------------------------
                    Distance matrix (angstroms):
                    1          2          3          4          5
     1  C    0.000000
     2  H    1.089425   0.000000
     3  H    1.089426   1.760115   0.000000
     4  C    1.514217   2.147382   2.147380   0.000000
     5  H    2.148116   2.489939   3.049268   1.085600   0.000000
     6  H    2.148100   3.049258   2.489995   1.085601   1.760150
     7  H    2.152833   2.485028   2.484933   1.087905   1.764965
     8  O    1.407328   2.055863   2.055848   2.372547   2.631346
     9  H    1.945163   2.314783   2.315664   3.205304   3.499151
                    6          7          8          9
     6  H    0.000000
     7  H    1.764953   0.000000
     8  O    2.631215   3.321288   0.000000
     9  H    3.499635   4.056595   0.938906   0.000000
 Stoichiometry    C2H6O
 Framework group  C1[X(C2H6O)]
 Deg. of freedom    21
 Full point group                 C1      NOp   1
 RotChk:  IX=0 Diff= 3.73D-04
 Largest Abelian subgroup         C1      NOp   1
 Largest concise Abelian subgroup C1      NOp   1
                         Standard orientation:                         
 ---------------------------------------------------------------------
 Center     Atomic      Atomic             Coordinates (Angstroms)
 Number     Number       Type             X           Y           Z
 ---------------------------------------------------------------------
      1          6           0       -0.089343    0.540514   -0.000057
      2          1           0       -0.151132    1.179705    0.879979
      3          1           0       -0.150995    1.179662   -0.880135
      4          6           0        1.221132   -0.218109    0.000062
      5          1           0        1.291538   -0.849704    0.880208
      6          1           0        1.291553   -0.849903   -0.879942
      7          1           0        2.062389    0.471691   -0.000022
      8          8           0       -1.145183   -0.389956   -0.000135
      9          1           0       -1.972620    0.053767    0.000965
 ---------------------------------------------------------------------
 Rotational constants (GHZ):          36.0373222           9.4197323           8.2268755
 Leave Link  202 at Mon Oct 10 14:42:24 2022, MaxMem=   104857600 cpu:               0.0 elap:               0.0
 (Enter /usr/local/g16/l301.exe)
 Standard basis: 6-311++G(d,p) (5D, 7F)
 Ernie: Thresh=  0.10000D-02 Tol=  0.10000D-05 Strict=F.
 There are   111 symmetry adapted cartesian basis functions of A   symmetry.
 There are   108 symmetry adapted basis functions of A   symmetry.
   108 basis functions,   162 primitive gaussians,   111 cartesian basis functions
    13 alpha electrons       13 beta electrons
       nuclear repulsion energy        82.3522086457 Hartrees.
 IExCor=    0 DFT=F Ex=HF Corr=None ExCW=0 ScaHFX=  1.000000
 ScaDFX=  1.000000  1.000000  1.000000  1.000000 ScalE2=  1.000000  1.000000
 IRadAn=      5 IRanWt=     -1 IRanGd=            0 ICorTp=0 IEmpDi=  4
 NAtoms=    9 NActive=    9 NUniq=    9 SFac= 1.00D+00 NAtFMM=   60 NAOKFM=F Big=F
 Integral buffers will be    131072 words long.
 Raffenetti 1 integral format.
 Two-electron integral symmetry is turned on.
 Leave Link  301 at Mon Oct 10 14:42:24 2022, MaxMem=   104857600 cpu:               0.3 elap:               0.0
 (Enter /usr/local/g16/l302.exe)
 NPDir=0 NMtPBC=     1 NCelOv=     1 NCel=       1 NClECP=     1 NCelD=      1
         NCelK=      1 NCelE2=     1 NClLst=     1 CellRange=     0.0.
 One-electron integrals computed using PRISM.
 One-electron integral symmetry used in STVInt
 NBasis=   108 RedAO= T EigKep=  1.11D-04  NBF=   108
 NBsUse=   108 1.00D-06 EigRej= -1.00D+00 NBFU=   108
 Leave Link  302 at Mon Oct 10 14:42:24 2022, MaxMem=   104857600 cpu:               0.8 elap:               0.1
 (Enter /usr/local/g16/l303.exe)
 DipDrv:  MaxL=1.
 Leave Link  303 at Mon Oct 10 14:42:24 2022, MaxMem=   104857600 cpu:               0.1 elap:               0.0
 (Enter /usr/local/g16/l401.exe)
 Initial guess from the checkpoint file:  "c2h5oh.chk"
 B after Tr=    -0.000000    0.000000   -0.000000
         Rot=    1.000000   -0.000012    0.000000    0.000327 Ang=  -0.04 deg.
 Guess basis will be translated and rotated to current coordinates.
 JPrj=2 DoOrth=T DoCkMO=T.
 Generating alternative initial guess.
 ExpMin= 3.60D-02 ExpMax= 8.59D+03 ExpMxC= 1.30D+03 IAcc=3 IRadAn=         5 AccDes= 0.00D+00
 Harris functional with IExCor=  205 and IRadAn=       5 diagonalized for initial guess.
 HarFok:  IExCor=  205 AccDes= 0.00D+00 IRadAn=         5 IDoV= 1 UseB2=F ITyADJ=14
 ICtDFT=  3500011 ScaDFX=  1.000000  1.000000  1.000000  1.000000
 FoFCou: FMM=F IPFlag=           0 FMFlag=      100000 FMFlg1=           0
         NFxFlg=           0 DoJE=T BraDBF=F KetDBF=T FulRan=T
         wScrn=  0.000000 ICntrl=       500 IOpCl=  0 I1Cent=   200000004 NGrid=           0
         NMat0=    1 NMatS0=      1 NMatT0=    0 NMatD0=    1 NMtDS0=    0 NMtDT0=    0
 Petite list used in FoFCou.
 Harris En= -154.416799175442    
 Leave Link  401 at Mon Oct 10 14:42:24 2022, MaxMem=   104857600 cpu:               1.9 elap:               0.2
 (Enter /usr/local/g16/l502.exe)
 Keep R1 ints in memory in canonical form, NReq=19882771.
 FoFCou: FMM=F IPFlag=           0 FMFlag=           0 FMFlg1=           0
         NFxFlg=           0 DoJE=F BraDBF=F KetDBF=F FulRan=T
         wScrn=  0.000000 ICntrl=       600 IOpCl=  0 I1Cent=           0 NGrid=           0
         NMat0=    1 NMatS0=   5886 NMatT0=    0 NMatD0=    1 NMtDS0=    0 NMtDT0=    0
 Symmetry not used in FoFCou.
 Two-electron integral symmetry not used.
 Closed shell SCF:
 Using DIIS extrapolation, IDIIS=  1040.
 NGot=   104857600 LenX=    87504912 LenY=    87492150
 Requested convergence on RMS density matrix=1.00D-08 within 128 cycles.
 Requested convergence on MAX density matrix=1.00D-06.
 Requested convergence on             energy=1.00D-06.
 No special actions if energy rises.

 Cycle   1  Pass 1  IDiag  1:
 E= -154.130152528506    
 DIIS: error= 5.83D-04 at cycle   1 NSaved=   1.
 NSaved= 1 IEnMin= 1 EnMin= -154.130152528506     IErMin= 1 ErrMin= 5.83D-04
 ErrMax= 5.83D-04  0.00D+00 EMaxC= 1.00D-01 BMatC= 6.04D-05 BMatP= 6.04D-05
 IDIUse=3 WtCom= 9.94D-01 WtEn= 5.83D-03
 Coeff-Com:  0.100D+01
 Coeff-En:   0.100D+01
 Coeff:      0.100D+01
 Gap=     0.672 Goal=   None    Shift=    0.000
 RMSDP=1.42D-04 MaxDP=2.91D-03              OVMax= 1.86D-03

 Cycle   2  Pass 1  IDiag  1:
 E= -154.130220144234     Delta-E=       -0.000067615727 Rises=F Damp=F
 DIIS: error= 1.50D-04 at cycle   2 NSaved=   2.
 NSaved= 2 IEnMin= 2 EnMin= -154.130220144234     IErMin= 2 ErrMin= 1.50D-04
 ErrMax= 1.50D-04  0.00D+00 EMaxC= 1.00D-01 BMatC= 2.77D-06 BMatP= 6.04D-05
 IDIUse=3 WtCom= 9.98D-01 WtEn= 1.50D-03
 Coeff-Com: -0.176D+00 0.118D+01
 Coeff-En:   0.000D+00 0.100D+01
 Coeff:     -0.175D+00 0.118D+01
 Gap=     0.482 Goal=   None    Shift=    0.000
 RMSDP=3.89D-05 MaxDP=8.04D-04 DE=-6.76D-05 OVMax= 7.05D-04

 Cycle   3  Pass 1  IDiag  1:
 E= -154.130224885361     Delta-E=       -0.000004741127 Rises=F Damp=F
 DIIS: error= 5.94D-05 at cycle   3 NSaved=   3.
 NSaved= 3 IEnMin= 3 EnMin= -154.130224885361     IErMin= 3 ErrMin= 5.94D-05
 ErrMax= 5.94D-05  0.00D+00 EMaxC= 1.00D-01 BMatC= 2.04D-07 BMatP= 2.77D-06
 IDIUse=1 WtCom= 1.00D+00 WtEn= 0.00D+00
 Coeff-Com: -0.436D-01 0.150D+00 0.894D+00
 Coeff:     -0.436D-01 0.150D+00 0.894D+00
 Gap=     0.482 Goal=   None    Shift=    0.000
 RMSDP=6.83D-06 MaxDP=1.04D-04 DE=-4.74D-06 OVMax= 1.74D-04

 Cycle   4  Pass 1  IDiag  1:
 E= -154.130225151327     Delta-E=       -0.000000265966 Rises=F Damp=F
 DIIS: error= 1.63D-05 at cycle   4 NSaved=   4.
 NSaved= 4 IEnMin= 4 EnMin= -154.130225151327     IErMin= 4 ErrMin= 1.63D-05
 ErrMax= 1.63D-05  0.00D+00 EMaxC= 1.00D-01 BMatC= 3.08D-08 BMatP= 2.04D-07
 IDIUse=1 WtCom= 1.00D+00 WtEn= 0.00D+00
 Coeff-Com:  0.146D-01-0.123D+00 0.153D+00 0.956D+00
 Coeff:      0.146D-01-0.123D+00 0.153D+00 0.956D+00
 Gap=     0.482 Goal=   None    Shift=    0.000
 RMSDP=2.65D-06 MaxDP=4.90D-05 DE=-2.66D-07 OVMax= 6.46D-05

 Cycle   5  Pass 1  IDiag  1:
 E= -154.130225190362     Delta-E=       -0.000000039035 Rises=F Damp=F
 DIIS: error= 3.60D-06 at cycle   5 NSaved=   5.
 NSaved= 5 IEnMin= 5 EnMin= -154.130225190362     IErMin= 5 ErrMin= 3.60D-06
 ErrMax= 3.60D-06  0.00D+00 EMaxC= 1.00D-01 BMatC= 1.15D-09 BMatP= 3.08D-08
 IDIUse=1 WtCom= 1.00D+00 WtEn= 0.00D+00
 Coeff-Com:  0.331D-02-0.203D-01-0.162D-01 0.115D+00 0.918D+00
 Coeff:      0.331D-02-0.203D-01-0.162D-01 0.115D+00 0.918D+00
 Gap=     0.482 Goal=   None    Shift=    0.000
 RMSDP=5.35D-07 MaxDP=7.34D-06 DE=-3.90D-08 OVMax= 1.42D-05

 Cycle   6  Pass 1  IDiag  1:
 E= -154.130225192079     Delta-E=       -0.000000001717 Rises=F Damp=F
 DIIS: error= 1.33D-06 at cycle   6 NSaved=   6.
 NSaved= 6 IEnMin= 6 EnMin= -154.130225192079     IErMin= 6 ErrMin= 1.33D-06
 ErrMax= 1.33D-06  0.00D+00 EMaxC= 1.00D-01 BMatC= 1.54D-10 BMatP= 1.15D-09
 IDIUse=1 WtCom= 1.00D+00 WtEn= 0.00D+00
 Coeff-Com: -0.111D-02 0.110D-01-0.201D-01-0.964D-01 0.151D+00 0.956D+00
 Coeff:     -0.111D-02 0.110D-01-0.201D-01-0.964D-01 0.151D+00 0.956D+00
 Gap=     0.482 Goal=   None    Shift=    0.000
 RMSDP=1.95D-07 MaxDP=2.81D-06 DE=-1.72D-09 OVMax= 5.31D-06

 Cycle   7  Pass 1  IDiag  1:
 E= -154.130225192323     Delta-E=       -0.000000000244 Rises=F Damp=F
 DIIS: error= 2.35D-07 at cycle   7 NSaved=   7.
 NSaved= 7 IEnMin= 7 EnMin= -154.130225192323     IErMin= 7 ErrMin= 2.35D-07
 ErrMax= 2.35D-07  0.00D+00 EMaxC= 1.00D-01 BMatC= 4.45D-12 BMatP= 1.54D-10
 IDIUse=1 WtCom= 1.00D+00 WtEn= 0.00D+00
 Coeff-Com:  0.442D-04-0.103D-02 0.436D-02 0.108D-01-0.720D-01-0.194D+00
 Coeff-Com:  0.125D+01
 Coeff:      0.442D-04-0.103D-02 0.436D-02 0.108D-01-0.720D-01-0.194D+00
 Coeff:      0.125D+01
 Gap=     0.482 Goal=   None    Shift=    0.000
 RMSDP=5.50D-08 MaxDP=5.59D-07 DE=-2.44D-10 OVMax= 1.69D-06

 Cycle   8  Pass 1  IDiag  1:
 E= -154.130225192335     Delta-E=       -0.000000000013 Rises=F Damp=F
 DIIS: error= 4.23D-08 at cycle   8 NSaved=   8.
 NSaved= 8 IEnMin= 8 EnMin= -154.130225192335     IErMin= 8 ErrMin= 4.23D-08
 ErrMax= 4.23D-08  0.00D+00 EMaxC= 1.00D-01 BMatC= 1.65D-13 BMatP= 4.45D-12
 IDIUse=1 WtCom= 1.00D+00 WtEn= 0.00D+00
 Coeff-Com:  0.340D-04-0.196D-03-0.257D-03 0.186D-02 0.954D-02 0.588D-02
 Coeff-Com: -0.252D+00 0.124D+01
 Coeff:      0.340D-04-0.196D-03-0.257D-03 0.186D-02 0.954D-02 0.588D-02
 Coeff:     -0.252D+00 0.124D+01
 Gap=     0.482 Goal=   None    Shift=    0.000
 RMSDP=9.68D-09 MaxDP=1.09D-07 DE=-1.27D-11 OVMax= 2.81D-07

 SCF Done:  E(RHF) =  -154.130225192     A.U. after    8 cycles
            NFock=  8  Conv=0.97D-08     -V/T= 2.0003
 KE= 1.540908773320D+02 PE=-5.266859091961D+02 EE= 1.361125980261D+02
 Leave Link  502 at Mon Oct 10 14:42:24 2022, MaxMem=   104857600 cpu:               2.5 elap:               0.3
 (Enter /usr/local/g16/l701.exe)
 ... and contract with generalized density number  0.
 Compute integral first derivatives.
 Leave Link  701 at Mon Oct 10 14:42:24 2022, MaxMem=   104857600 cpu:               0.9 elap:               0.1
 (Enter /usr/local/g16/l702.exe)
 L702 exits ... SP integral derivatives will be done elsewhere.
 Leave Link  702 at Mon Oct 10 14:42:24 2022, MaxMem=   104857600 cpu:               0.1 elap:               0.0
 (Enter /usr/local/g16/l703.exe)
 Integral derivatives from FoFJK, PRISM(SPDF).
 Compute integral first derivatives, UseDBF=F ICtDFT=           0.
 Calling FoFJK, ICntrl=      2127 FMM=F ISym2X=0 I1Cent= 0 IOpClX= 0 NMat=1 NMatS=1 NMatT=0.
 FoFJK:  IHMeth= 1 ICntrl=    2127 DoSepK=F KAlg= 0 I1Cent=           0 FoldK=F
 IRaf=         0 NMat=       1 IRICut=       1 DoRegI=T DoRafI=F ISym2E= 0 IDoP0=0 IntGTp=1.
 FoFCou: FMM=F IPFlag=           0 FMFlag=      100000 FMFlg1=         800
         NFxFlg=           0 DoJE=F BraDBF=F KetDBF=F FulRan=T
         wScrn=  0.000000 ICntrl=      2127 IOpCl=  0 I1Cent=           0 NGrid=           0
         NMat0=    1 NMatS0=      1 NMatT0=    0 NMatD0=    1 NMtDS0=    0 NMtDT0=    0
 Symmetry not used in FoFCou.
 Leave Link  703 at Mon Oct 10 14:42:25 2022, MaxMem=   104857600 cpu:               2.2 elap:               0.2
 (Enter /usr/local/g16/l716.exe)
 Dipole        =-5.22805411D-02 7.13593113D-01 8.28488801D-04
 ***** Axes restored to original set *****
 -------------------------------------------------------------------
 Center     Atomic                   Forces (Hartrees/Bohr)
 Number     Number              X              Y              Z
 -------------------------------------------------------------------
      1        6           0.000598148    0.001410016    0.000421852
      2        1           0.000111836   -0.000086436   -0.000382613
      3        1          -0.000322835   -0.000084524    0.000235529
      4        6          -0.000605778   -0.000132062   -0.000431024
      5        1           0.000354241   -0.000166275   -0.000211941
      6        1          -0.000081915   -0.000166645    0.000404608
      7        1          -0.000215965    0.001139184   -0.000151940
      8        8          -0.000716650   -0.002593185   -0.000500822
      9        1           0.000878918    0.000679926    0.000616351
 -------------------------------------------------------------------
 Cartesian Forces:  Max     0.002593185 RMS     0.000727622
 Leave Link  716 at Mon Oct 10 14:42:25 2022, MaxMem=   104857600 cpu:               0.1 elap:               0.0
 (Enter /usr/local/g16/l103.exe)

 GradGradGradGradGradGradGradGradGradGradGradGradGradGradGradGradGradGrad
 Berny optimization.
 Using GEDIIS/GDIIS optimizer.
 FormGI is forming the generalized inverse of G from B-inverse, IUseBI=4.
 Internal  Forces:  Max     0.001666797 RMS     0.000536122
 Search for a local minimum.
 Step number   3 out of a maximum of   43
 All quantities printed in internal units (Hartrees-Bohrs-Radians)
 RMS Force = .53612D-03 SwitMx=.10000D-02 MixMth= 2
 Mixed Optimization -- En-DIIS/RFO-DIIS
 Update second derivatives using D2CorX and points    1    2    3
 DE= -1.25D-04 DEPred=-1.54D-04 R= 8.10D-01
 TightC=F SS=  1.41D+00  RLast= 5.28D-02 DXNew= 5.6004D-01 1.5848D-01
 Trust test= 8.10D-01 RLast= 5.28D-02 DXMaxT set to 3.33D-01
 ITU=  1  1  0
 Use linear search instead of GDIIS.
     Eigenvalues ---    0.00237   0.01295   0.05152   0.05412   0.05523
     Eigenvalues ---    0.05663   0.11169   0.13664   0.14900   0.16000
     Eigenvalues ---    0.16001   0.17283   0.25571   0.29640   0.36298
     Eigenvalues ---    0.37230   0.37230   0.37414   0.37749   0.41938
     Eigenvalues ---    0.57630
 RFO step:  Lambda=-1.68874859D-05 EMin= 2.36824175D-03
 Quartic linear search produced a step of -0.15513.
 Iteration  1 RMS(Cart)=  0.00205627 RMS(Int)=  0.00000584
 Iteration  2 RMS(Cart)=  0.00000235 RMS(Int)=  0.00000543
 Iteration  3 RMS(Cart)=  0.00000000 RMS(Int)=  0.00000543
 ITry= 1 IFail=0 DXMaxC= 7.61D-03 DCOld= 1.00D+10 DXMaxT= 3.33D-01 DXLimC= 3.00D+00 Rises=F
 Variable       Old X    -DE/DX   Delta X   Delta X   Delta X     New X
                                 (Linear)    (Quad)   (Total)
    R1        2.05871  -0.00038  -0.00064  -0.00021  -0.00085   2.05787
    R2        2.05872  -0.00038  -0.00064  -0.00021  -0.00085   2.05787
    R3        2.86146  -0.00016   0.00041  -0.00070  -0.00029   2.86116
    R4        2.65947  -0.00167   0.00076  -0.00421  -0.00345   2.65601
    R5        2.05149  -0.00040  -0.00024  -0.00078  -0.00102   2.05047
    R6        2.05149  -0.00040  -0.00024  -0.00078  -0.00102   2.05047
    R7        2.05584  -0.00109  -0.00052  -0.00197  -0.00249   2.05335
    R8        1.77427   0.00116   0.00002   0.00201   0.00203   1.77631
    A1        1.88088  -0.00017   0.00273  -0.00385  -0.00112   1.87976
    A2        1.92087   0.00024   0.00031   0.00015   0.00047   1.92134
    A3        1.92347   0.00042  -0.00033   0.00202   0.00170   1.92517
    A4        1.92087   0.00024   0.00031   0.00014   0.00047   1.92134
    A5        1.92345   0.00042  -0.00033   0.00202   0.00170   1.92515
    A6        1.89447  -0.00111  -0.00271  -0.00046  -0.00315   1.89132
    A7        1.92588   0.00035  -0.00013   0.00221   0.00208   1.92796
    A8        1.92586   0.00035  -0.00013   0.00221   0.00209   1.92794
    A9        1.93004  -0.00073  -0.00291  -0.00047  -0.00337   1.92667
   A10        1.89063  -0.00020   0.00111  -0.00133  -0.00022   1.89041
   A11        1.89527   0.00012   0.00107  -0.00137  -0.00029   1.89497
   A12        1.89524   0.00012   0.00107  -0.00137  -0.00029   1.89495
   A13        1.92699  -0.00092  -0.00320  -0.00040  -0.00360   1.92339
    D1        1.06188  -0.00013  -0.00249   0.00171  -0.00078   1.06109
    D2       -3.13255   0.00005  -0.00128   0.00288   0.00161  -3.13094
    D3       -1.03536  -0.00004  -0.00189   0.00230   0.00042  -1.03494
    D4        3.13233  -0.00005   0.00127  -0.00284  -0.00158   3.13075
    D5       -1.06209   0.00013   0.00248  -0.00167   0.00081  -1.06128
    D6        1.03510   0.00004   0.00187  -0.00225  -0.00038   1.03472
    D7       -1.04450  -0.00009  -0.00062  -0.00056  -0.00118  -1.04569
    D8        1.04426   0.00009   0.00060   0.00061   0.00121   1.04547
    D9        3.14145   0.00000  -0.00001   0.00003   0.00002   3.14147
   D10        1.03549   0.00016   0.00142  -0.00084   0.00060   1.03608
   D11       -1.03817  -0.00015  -0.00153   0.00140  -0.00014  -1.03832
   D12        3.14026   0.00000  -0.00006   0.00028   0.00023   3.14048
         Item               Value     Threshold  Converged?
 Maximum Force            0.001667     0.000015     NO 
 RMS     Force            0.000536     0.000010     NO 
 Maximum Displacement     0.007613     0.000060     NO 
 RMS     Displacement     0.002057     0.000040     NO 
 Predicted change in Energy=-1.276444D-05
 Lowest energy point so far.  Saving SCF results.
 GradGradGradGradGradGradGradGradGradGradGradGradGradGradGradGradGradGrad

 Leave Link  103 at Mon Oct 10 14:42:25 2022, MaxMem=   104857600 cpu:               0.1 elap:               0.0
 (Enter /usr/local/g16/l202.exe)
                          Input orientation:                          
 ---------------------------------------------------------------------
 Center     Atomic      Atomic             Coordinates (Angstroms)
 Number     Number       Type             X           Y           Z
 ---------------------------------------------------------------------
      1          6           0       -0.000063    0.000900    0.000083
      2          1           0        0.016816    0.000541    1.088929
      3          1           0        1.032092    0.000759   -0.347088
      4          6           0       -0.720087   -1.229796   -0.509171
      5          1           0       -1.746565   -1.241411   -0.157652
      6          1           0       -0.731122   -1.241077   -1.594119
      7          1           0       -0.224020   -2.130780   -0.158723
      8          8           0       -0.674859    1.137833   -0.476854
      9          1           0       -0.248645    1.919055   -0.174199
 ---------------------------------------------------------------------
                    Distance matrix (angstroms):
                    1          2          3          4          5
     1  C    0.000000
     2  H    1.088976   0.000000
     3  H    1.088977   1.758672   0.000000
     4  C    1.514062   2.147248   2.147246   0.000000
     5  H    2.149066   2.491169   3.049558   1.085062   0.000000
     6  H    2.149054   3.049552   2.491217   1.085063   1.759137
     7  H    2.149288   2.481364   2.481282   1.086586   1.763270
     8  O    1.405502   2.055121   2.055105   2.368281   2.628925
     9  H    1.942031   2.312283   2.313014   3.201518   3.497511
                    6          7          8          9
     6  H    0.000000
     7  H    1.763260   0.000000
[...]
    A4        1.92067   0.00000   0.00000   0.00000   0.00000   1.92067
    A5        1.92546  -0.00000   0.00000  -0.00001  -0.00001   1.92546
    A6        1.89180   0.00000   0.00000   0.00000   0.00000   1.89180
    A7        1.92767   0.00000   0.00000  -0.00000  -0.00000   1.92767
    A8        1.92766   0.00000   0.00000   0.00000   0.00000   1.92767
    A9        1.92612   0.00000   0.00000   0.00000   0.00000   1.92612
   A10        1.89072  -0.00000   0.00000  -0.00000  -0.00000   1.89072
   A11        1.89539  -0.00000   0.00000  -0.00000  -0.00000   1.89539
   A12        1.89539  -0.00000   0.00000   0.00000   0.00000   1.89539
   A13        1.92349  -0.00000   0.00000  -0.00000  -0.00000   1.92348
    D1        1.06143  -0.00000   0.00000   0.00000   0.00000   1.06144
    D2       -3.13057  -0.00000   0.00000   0.00000   0.00000  -3.13057
    D3       -1.03457  -0.00000   0.00000   0.00000   0.00000  -1.03457
    D4        3.13056   0.00000   0.00000   0.00001   0.00001   3.13057
    D5       -1.06144   0.00000   0.00000   0.00001   0.00001  -1.06144
    D6        1.03456   0.00000   0.00000   0.00001   0.00001   1.03457
    D7       -1.04559  -0.00000   0.00000   0.00001   0.00001  -1.04559
    D8        1.04558   0.00000   0.00000   0.00001   0.00001   1.04559
    D9        3.14159   0.00000   0.00000   0.00001   0.00001  -3.14159
   D10        1.03748  -0.00000   0.00000   0.00005   0.00005   1.03754
   D11       -1.03760   0.00000   0.00000   0.00006   0.00006  -1.03754
   D12        3.14154   0.00000   0.00000   0.00005   0.00005   3.14159
         Item               Value     Threshold  Converged?
 Maximum Force            0.000002     0.000015     YES
 RMS     Force            0.000001     0.000010     YES
 Maximum Displacement     0.000037     0.000060     YES
 RMS     Displacement     0.000012     0.000040     YES
 Predicted change in Energy=-3.797692D-11
 Optimization completed.
    -- Stationary point found.
                           ----------------------------
                           !   Optimized Parameters   !
                           ! (Angstroms and Degrees)  !
 --------------------------                            --------------------------
 ! Name  Definition              Value          Derivative Info.                !
 --------------------------------------------------------------------------------
 ! R1    R(1,2)                  1.089          -DE/DX =    0.0                 !
 ! R2    R(1,3)                  1.089          -DE/DX =    0.0                 !
 ! R3    R(1,4)                  1.5143         -DE/DX =    0.0                 !
 ! R4    R(1,8)                  1.4054         -DE/DX =    0.0                 !
 ! R5    R(4,5)                  1.085          -DE/DX =    0.0                 !
 ! R6    R(4,6)                  1.085          -DE/DX =    0.0                 !
 ! R7    R(4,7)                  1.0865         -DE/DX =    0.0                 !
 ! R8    R(8,9)                  0.9399         -DE/DX =    0.0                 !
 ! A1    A(2,1,3)              107.7163         -DE/DX =    0.0                 !
 ! A2    A(2,1,4)              110.0463         -DE/DX =    0.0                 !
 ! A3    A(2,1,8)              110.3211         -DE/DX =    0.0                 !
 ! A4    A(3,1,4)              110.0463         -DE/DX =    0.0                 !
 ! A5    A(3,1,8)              110.321          -DE/DX =    0.0                 !
 ! A6    A(4,1,8)              108.392          -DE/DX =    0.0                 !
 ! A7    A(1,4,5)              110.4471         -DE/DX =    0.0                 !
 ! A8    A(1,4,6)              110.447          -DE/DX =    0.0                 !
 ! A9    A(1,4,7)              110.3583         -DE/DX =    0.0                 !
 ! A10   A(5,4,6)              108.3302         -DE/DX =    0.0                 !
 ! A11   A(5,4,7)              108.5979         -DE/DX =    0.0                 !
 ! A12   A(6,4,7)              108.5978         -DE/DX =    0.0                 !
 ! A13   A(1,8,9)              110.2077         -DE/DX =    0.0                 !
 ! D1    D(2,1,4,5)             60.8157         -DE/DX =    0.0                 !
 ! D2    D(2,1,4,6)           -179.3686         -DE/DX =    0.0                 !
 ! D3    D(2,1,4,7)            -59.2765         -DE/DX =    0.0                 !
 ! D4    D(3,1,4,5)            179.368          -DE/DX =    0.0                 !
 ! D5    D(3,1,4,6)            -60.8163         -DE/DX =    0.0                 !
 ! D6    D(3,1,4,7)             59.2758         -DE/DX =    0.0                 !
 ! D7    D(8,1,4,5)            -59.9082         -DE/DX =    0.0                 !
 ! D8    D(8,1,4,6)             59.9075         -DE/DX =    0.0                 !
 ! D9    D(8,1,4,7)           -180.0004         -DE/DX =    0.0                 !
 ! D10   D(2,1,8,9)             59.4435         -DE/DX =    0.0                 !
 ! D11   D(3,1,8,9)            -59.4499         -DE/DX =    0.0                 !
 ! D12   D(4,1,8,9)            179.9968         -DE/DX =    0.0                 !
 --------------------------------------------------------------------------------
 GradGradGradGradGradGradGradGradGradGradGradGradGradGradGradGradGradGrad

 Leave Link  103 at Mon Oct 10 14:42:34 2022, MaxMem=   104857600 cpu:               0.2 elap:               0.0
 (Enter /usr/local/g16/l9999.exe)

 ----------------------------------------------------------------------

 Electric dipole moment (input orientation):
 (Debye = 10**-18 statcoulomb cm , SI units = C m)
                  (au)            (Debye)         (10**-30 SI)
   Tot        0.715664D+00      0.181904D+01      0.606765D+01
   x          0.584275D+00      0.148508D+01      0.495369D+01
   y         -0.127406D-01     -0.323835D-01     -0.108020D+00
   z          0.413079D+00      0.104994D+01      0.350223D+01

 Dipole polarizability, Alpha (input orientation).
 (esu units = cm**3 , SI units = C**2 m**2 J**-1)
 Alpha(0;0):
               (au)            (10**-24 esu)      (10**-40 SI)
   iso        0.283374D+02      0.419917D+01      0.467220D+01
   aniso      0.370888D+01      0.549599D+00      0.611512D+00
   xx         0.274703D+02      0.407068D+01      0.452925D+01
   yx         0.327580D+00      0.485424D-01      0.540107D-01
   yy         0.305923D+02      0.453332D+01      0.504400D+01
   zx         0.736340D+00      0.109114D+00      0.121406D+00
   zy         0.233063D+00      0.345363D-01      0.384268D-01
   zz         0.269495D+02      0.399350D+01      0.444337D+01

 First dipole hyperpolarizability, Beta (input orientation).
 ||, _|_  parallel and perpendicular components, (z) with respect to z axis,
 vector components x,y,z.  Values do not include the 1/n! factor of 1/2.
 (esu units = statvolt**-1 cm**4 , SI units = C**3 m**3 J**-2)
 Beta(0;0,0):
               (au)            (10**-30 esu)      (10**-50 SI)
   || (z)     0.106528D+02      0.920319D-01      0.341567D-01
   _|_(z)     0.355093D+01      0.306773D-01      0.113856D-01
   x          0.754162D+02      0.651537D+00      0.241812D+00
   y         -0.150490D+03     -0.130011D+01     -0.482524D+00
   z          0.532640D+02      0.460159D+00      0.170784D+00
   ||         0.353111D+02      0.305060D+00      0.113220D+00
   xxx        0.370894D+01      0.320424D-01      0.118922D-01
   xxy       -0.113853D+02     -0.983600D-01     -0.365053D-01
   yxy        0.196511D+02      0.169770D+00      0.630085D-01
   yyy       -0.286841D+02     -0.247808D+00     -0.919715D-01
   xxz        0.240955D+01      0.208167D-01      0.772590D-02
   yxz       -0.180367D+01     -0.155823D-01     -0.578322D-02
   yyz        0.138885D+02      0.119986D+00      0.445315D-01
   zxz        0.177871D+01      0.153666D-01      0.570318D-02
   zyz       -0.100939D+02     -0.872031D-01     -0.323646D-01
   zzz        0.145661D+01      0.125840D-01      0.467042D-02

 ----------------------------------------------------------------------

 Dipole orientation:
     6         -0.00039653          0.00210912         -0.00049672
     1         -1.66190927          0.03693168          1.21310049
     1          1.66159325          0.00719254          1.21293649
     6         -0.02155510         -2.35351911         -1.62513745
     1         -1.68414819         -2.38141852         -2.82465348
     1          1.64014564         -2.41115385         -2.82482995
     1         -0.03652567         -4.03427341         -0.44605429
     8          0.01850010          2.12255236         -1.59933430
     1          0.03181818          3.61593261         -0.63773667

 Electric dipole moment (dipole orientation):
 (Debye = 10**-18 statcoulomb cm , SI units = C m)
                  (au)            (Debye)         (10**-30 SI)
   Tot        0.715664D+00      0.181904D+01      0.606765D+01
   x          0.000000D+00      0.000000D+00      0.000000D+00
   y          0.000000D+00      0.000000D+00      0.000000D+00
   z          0.715664D+00      0.181904D+01      0.606765D+01

 Dipole polarizability, Alpha (dipole orientation).
 (esu units = cm**3 , SI units = C**2 m**2 J**-1)
 Alpha(0;0):
               (au)            (10**-24 esu)      (10**-40 SI)
   iso        0.283374D+02      0.419917D+01      0.467220D+01
   aniso      0.370888D+01      0.549599D+00      0.611512D+00
   xx         0.264292D+02      0.391641D+01      0.435759D+01
   yx         0.372994D-01      0.552720D-02      0.614983D-02
   yy         0.306055D+02      0.453527D+01      0.504617D+01
   zx         0.325831D-02      0.482831D-03      0.537222D-03
   zy         0.355453D+00      0.526727D-01      0.586063D-01
   zz         0.279775D+02      0.414583D+01      0.461286D+01

 First dipole hyperpolarizability, Beta (dipole orientation).
 ||, _|_  parallel and perpendicular components, (z) with respect to z axis,
 vector components x,y,z.  Values do not include the 1/n! factor of 1/2.
 (esu units = statvolt**-1 cm**4 , SI units = C**3 m**3 J**-2)
 Beta(0;0,0):
               (au)            (10**-30 esu)      (10**-50 SI)
   || (z)     0.189987D+02      0.164134D+00      0.609167D-01
   _|_(z)     0.633290D+01      0.547113D-01      0.203056D-01
   x         -0.132685D+01     -0.114629D-01     -0.425435D-02
   y         -0.148816D+03     -0.128566D+01     -0.477158D+00
   z          0.949935D+02      0.820670D+00      0.304584D+00
   ||         0.353111D+02      0.305060D+00      0.113220D+00
   xxx       -0.236504D+00     -0.204321D-02     -0.758319D-03
   xxy       -0.881894D+01     -0.761888D-01     -0.282767D-01
   yxy       -0.863530D-01     -0.746022D-03     -0.276879D-03
   yyy       -0.273965D+02     -0.236684D+00     -0.878431D-01
   xxz        0.337881D+00      0.291903D-02      0.108337D-02
   yxz        0.211741D+00      0.182928D-02      0.678919D-03
   yyz        0.240972D+02      0.208181D+00      0.772643D-01
   zxz       -0.119425D+00     -0.103174D-02     -0.382919D-03
   zyz       -0.133899D+02     -0.115679D+00     -0.429330D-01
   zzz        0.722945D+01      0.624568D-01      0.231802D-01

 ----------------------------------------------------------------------
 1\1\GINC-AE2-C724\Freq\RHF\6-311++G(d,p)\C2H6O1\DDI\10-Oct-2022\0\\#P 
 Geom=AllCheck Guess=TCheck SCRF=Check GenChk RHF/6-311++G(d,p) Freq\\T
 itle Card Required\\0,1\C,-0.0003254702,0.0011186213,0.0000394628\H,0.
 0164808616,0.0000069688,1.08886479\H,1.0317483387,0.0004813618,-0.3473
 043304\C,-0.7201642641,-1.2299735937,-0.5092410937\H,-1.7465210942,-1.
 2415416651,-0.1576007453\H,-0.7310172038,-1.2410612795,-1.5941154993\H
 ,-0.2235402599,-2.1303925383,-0.1584683819\O,-0.6749504951,1.138137699
 9,-0.4764969446\H,-0.24816379,1.9192477165,-0.1744718231\\Version=ES64
 L-G16RevA.03\State=1-A\HF=-154.1302381\RMSD=1.690e-09\RMSF=7.771e-07\Z
 eroPoint=0.0850694\Thermal=0.0892499\Dipole=0.5842754,-0.0127406,0.413
 0794\DipoleDeriv=0.52914,-0.1859386,0.0181546,-0.2322878,0.8606231,-0.
 1640895,0.0181411,-0.1313229,0.5161408,0.0135792,0.0235376,-0.0010363,
 0.0078339,-0.0501159,-0.0166661,-0.0481641,0.0174664,-0.2595096,-0.244
 6018,0.0242378,0.0431903,-0.0131977,-0.0501246,0.0129353,0.0903002,0.0
 163681,-0.0013208,0.1117878,-0.0983032,-0.022801,-0.0449566,0.0472947,
 -0.0318146,-0.0227844,-0.0695257,0.1278637,-0.1500989,-0.0401717,0.055
 596,0.0026091,0.0386201,-0.0192597,0.0780148,-0.0128225,0.0293543,0.05
 14162,-0.0254869,0.0067031,-0.0172758,0.0386182,0.0089802,-0.0156981,-
 0.0335046,-0.1721571,-0.0019943,0.1045971,-0.0507222,0.0698042,-0.1258
 557,0.0492808,-0.0507338,0.0738768,0.0339666,-0.5715079,0.2493796,0.03
 44661,0.2473007,-1.0284817,0.1746929,0.0344625,0.1761631,-0.5956931,0.
 2622798,-0.0518518,-0.0835507,-0.0198301,0.2694218,-0.0140593,-0.08353
 83,-0.0366988,0.3213552\Polar=27.4703322,0.3275804,30.5923497,0.736339
 5,0.2330625,26.9494963\PolarDeriv=-7.0389061,-0.3497755,4.7024845,2.55
 58703,-0.0764987,-0.255897,1.8011813,2.8283928,0.0267224,0.4592135,1.9
 9915,1.4821481,3.1243142,-0.0768559,3.3244709,-1.0588029,-0.2891666,-8
 .2802489,0.9466775,-0.0316535,-0.8484932,1.3206932,-0.0942939,0.013683
 6,0.0358337,-0.0287595,-0.0766578,-0.2883126,1.9286635,-0.4412163,0.68
 66685,0.0617573,0.9698112,1.0765015,0.1747631,10.0612697,9.4563913,0.1
 444267,0.6313823,-1.5496019,0.0000298,0.9964413,-0.5666147,1.8085956,-
 0.0742658,-0.0744771,-0.6705598,0.1639486,-2.34033,-0.1560212,-1.12352
 81,1.9486168,0.0015015,-0.3394933,5.5200351,0.6444721,-4.9171671,-2.76
 24732,0.0104258,-0.2329233,-0.0193411,-4.2507763,1.105214,0.0263897,-3
 .0047868,-0.0446608,-3.3643139,0.0104116,-3.4760042,0.618114,0.6305169
 ,7.1023558,-8.5639101,-1.077612,-0.8098303,1.6505386,0.1297312,-1.3087
 356,-0.0841182,-1.1638401,-0.4206281,0.0563742,0.9505937,0.1049631,2.2
 276111,0.321282,1.0787117,-1.7538161,-0.246282,0.6699321,-0.6043601,-0
 .1970237,0.7467898,-1.156733,0.0100848,0.042899,0.1192976,0.5081323,-0
 .4182648,-0.0150302,-1.4138952,-0.0956005,-0.9293738,-0.1813092,-1.122
 5839,-0.6493505,-1.1241107,-9.3452418,1.5593394,-2.0302557,2.7591851,0
 .9065056,-0.4123605,0.7654499,-1.3189926,2.2367074,-7.4490687,-0.33361
 09,1.5794537,-1.0813897,0.958953,-0.4125205,1.9489787,0.6916395,-1.736
 7102,0.6827214,-2.0929536,1.2974729,-5.0827258,-1.3945585,0.0380843,-0
 .5137449,-0.7790857,-3.3782648,-0.4841466,-0.2929388,-2.3889316,-0.574
 0129,-0.9216823,0.0388714,-3.5946363,-1.1837964,1.267116,-0.9210066,0.
 8176864,1.5999488,2.8183747,0.429759,0.3947971,0.4928269,0.8118397,1.4
 398126,7.7910953,0.4623923,1.0203127,0.4858204,0.5581532,0.3943845,1.9
 9478,0.3108941,1.322372,0.3697116\HyperPolar=3.70894,-11.3852821,19.65
 10951,-28.6840581,2.4095547,-1.8036717,13.8884949,1.7787073,-10.093864
 3,1.4566115\Quadrupole=-0.7219026,1.3769803,-0.6550778,1.5115145,-0.09
 28559,1.0693761\PG=C01 [X(C2H6O1)]\NImag=0\\0.63870715,0.01848263,0.55
 657620,-0.01614861,0.01303315,0.65015053,-0.06587523,-0.00140209,0.010
 25013,0.06350270,-0.00292285,-0.06136863,-0.01259585,-0.00437678,0.071
 43595,0.00455726,-0.00965896,-0.32203649,0.00113871,0.00138429,0.35244
 184,-0.28887202,-0.00968185,0.08345655,0.00124908,-0.00113972,0.002508
 35,0.32101007,-0.01295965,-0.06137681,0.00148828,0.00118118,0.00306155
 ,-0.00162512,-0.00003739,0.07144000,0.08914753,0.00194406,-0.09903096,
 0.03528226,0.00167325,-0.01212215,-0.08997175,-0.00462613,0.09493035,-
 0.13712395,-0.07180933,-0.02837330,0.00154989,0.00107663,0.00148510,-0
 .01531596,-0.03088176,-0.01370184,0.62097069,-0.05510509,-0.17698684,-
 0.03898145,-0.00107981,0.00097037,-0.00031379,-0.00066442,0.00095554,-
 0.00091981,-0.03307014,0.58467704,-0.02836757,-0.05079017,-0.11709243,
 -0.01965949,-0.03313981,-0.01100786,0.00745212,0.01206923,0.00587275,-
 0.01046343,-0.02339504,0.62835099,-0.01903180,0.00223014,0.00677306,0.
 00072592,0.00025568,-0.00075392,-0.00028085,-0.00342594,-0.00211131,-0
 .30685106,-0.00255555,0.08720626,0.33368910,-0.03265281,0.00000012,0.0
 1175903,0.00122180,0.00136584,0.00032070,-0.00334513,-0.00544441,-0.00
 245522,0.00161666,-0.05669126,-0.00035775,0.00307974,0.05621564,-0.015
 01116,0.00008915,0.00497351,-0.00020257,0.00115405,0.00080974,-0.00155
 133,-0.00308900,0.00017130,0.08912088,0.00023109,-0.08900309,-0.096062
 34,0.00205694,0.08942508,-0.00028829,0.00083752,-0.02163195,-0.0010284
 0,-0.00405288,-0.00128705,0.00049904,0.00117301,-0.00012230,-0.0577940
 1,-0.00063541,0.00099604,0.00239504,-0.00039949,0.03568965,0.05618571,
 0.00019352,0.00001500,-0.03470583,-0.00342821,-0.00544478,-0.00233780,
 0.00070991,0.00136601,0.00104496,0.00020203,-0.05669100,0.00176910,0.0
 0009041,-0.00058632,-0.00043986,0.00296546,0.05621556,0.00014040,0.002
 07877,-0.01378479,-0.00184679,-0.00220273,0.00091919,-0.00067349,-0.00
 014399,0.00103640,-0.00091689,-0.00236109,-0.33806026,0.00016731,0.000
 23634,-0.01029235,0.00212687,0.00207940,0.36692844,0.00957742,-0.01330
 152,0.00834850,0.00053959,0.00085396,0.00017992,0.00055467,0.00093633,
 0.00067797,-0.11647974,0.10585475,-0.04249860,-0.01361402,0.02885969,-
 0.01263423,-0.00036673,-0.00138091,-0.00002104,0.12021388,0.01979674,-
 0.01777217,0.01398958,0.00022394,0.00088105,-0.00104010,-0.00090603,0.
 00088058,0.00055855,0.10198272,-0.24644147,0.07203019,-0.00006562,0.00
 180280,-0.00145279,-0.00138442,0.00178786,0.00042761,-0.11582974,0.267
 82140,0.00835950,-0.00940835,0.00366795,0.00068306,0.00069149,0.000251
 21,0.00017401,0.00057475,0.00023665,-0.04249988,0.07476735,-0.08633068
 ,0.00466672,-0.01167556,0.00410996,-0.01733167,0.03110082,-0.00912242,
 0.04748627,-0.08181063,0.08652730,-0.14869604,0.05036971,-0.05132192,-
 0.00085034,0.01042795,-0.00742799,-0.01880116,0.04315795,-0.01997456,0
 .01337526,-0.01592192,0.00669710,0.00275935,0.00159410,0.00087591,0.00
 051113,0.00066377,0.00088557,-0.00134754,-0.00485180,-0.00168380,0.317
 08670,0.08599394,-0.21216493,0.06074699,0.00868840,-0.01274462,0.01301
 833,0.01517012,-0.01272616,0.00383279,0.02556542,-0.04485431,0.0180564
 1,0.00023995,0.00286279,0.00126432,0.00127044,0.00286281,-0.00019493,-
 0.00476438,-0.00774410,-0.00337101,0.10994765,0.71620641,-0.05130847,0
 .03555937,-0.11233964,-0.02633752,0.04208289,-0.00908125,-0.00107525,-
 0.00421602,0.00885169,0.00671128,-0.01127255,0.00863497,0.00008997,0.0
 0014125,-0.00011142,0.00167126,0.00145657,0.00213666,-0.00168389,-0.00
 343305,-0.00015945,0.18633792,0.07797857,0.18534894,0.01160277,0.02427
 479,0.00864754,0.00018678,-0.00012199,-0.00040038,-0.00004287,0.000856
 27,0.00077398,-0.00233113,0.00317759,-0.00136241,0.00020833,0.00002544
 ,-0.00022481,-0.00011350,-0.00001599,0.00013806,0.00092246,0.00103419,
 0.00014579,-0.16403737,-0.24211152,-0.11440531,0.15360453,-0.02082643,
 -0.02692195,-0.01473390,-0.00102843,0.00184327,0.00025245,-0.00010549,
 0.00184370,-0.00105246,0.00531777,-0.00493806,0.00375784,0.00015119,0.
 00047480,0.00018610,0.00022577,0.00047487,0.00008062,-0.00122818,-0.00
 121595,-0.00086886,-0.19538741,-0.43169790,-0.13829703,0.21288121,0.46
 013722,0.00863111,0.01715296,0.00549232,0.00069222,0.00095243,-0.00017
 424,-0.00031920,-0.00043201,0.00005397,-0.00136192,0.00224529,-0.00136
 439,0.00002425,-0.00002571,-0.00008273,-0.00011085,0.00003264,0.000239
 12,0.00014509,0.00073063,0.00081949,-0.11438823,-0.17133146,-0.0832805
 0,0.10668754,0.15067524,0.07829697\\-0.00000138,0.00000114,-0.00000088
 ,0.00000038,-0.00000101,0.00000087,0.00000093,-0.00000109,-0.00000004,
 0.00000021,0.00000205,0.00000025,-0.00000050,0.00000014,0.00000027,0.0
 0000009,0.00000015,-0.00000056,0.00000086,-0.00000131,0.00000059,-0.00
 000022,-0.00000023,-0.00000054,-0.00000037,0.00000016,0.00000004\\\@


 IF I HAVE SEEN FARTHER, IT IS BY STANDING ON THE
 SHOULDERS OF GIANTS. -- SIR ISAAC NEWTON
 Job cpu time:       0 days  0 hours  0 minutes 32.0 seconds.
 Elapsed time:       0 days  0 hours  0 minutes  3.0 seconds.
 File lengths (MBytes):  RWF=     13 Int=      0 D2E=      0 Chk=      2 Scr=      1
 Normal termination of Gaussian 16 at Mon Oct 10 14:42:34 2022.
