[Molden Format]
[Molpro variables]
_NUMVAR=  1112.000000000000    
_AVOGAD= 0.6022140760000000E+24
_BOLTZ= 0.1380649000000000E-22
_CLIGHTSI=  299792458.0000000    
_JOULE= 0.4359744722207100E-17
_JPCAL=  4.184000000000000    
_PLANCK= 0.6626070150000000E-33
_BOHR= 0.5291772109030000E-10
_ECHARG= 0.1602176634000000E-18
_ENULL= 0.8854187812800001E-11
_MU= 0.1660539066600000E-26
_EMASS= 0.9109383701500001E-30
_AMU2AU=  1822.888486217313    
_CLIGHT=  29979245800.00000    
_EV= 0.3674932217565494E-01
_KJOULE= 0.3808798847133432E-03
_KJOULE/MOL= 0.3808798847133432E-03
_CM= 0.4556335252912009E-05
_CM-1= 0.4556335252912009E-05
_DEB2SI= 0.3335640951981520E-29
_KCAL= 0.1593601437640628E-02
_KCAL/MOL= 0.1593601437640628E-02
_KELVIN= 0.3166811563455608E-05
_HERTZ= 0.1519829846057038E-15
_HZ= 0.1519829846057038E-15
_TOA= 0.5291772109030000    
_TOANG= 0.5291772109030000    
_TORAD= 0.1745329251994330E-01
_TOCM=  219474.6313631965    
_TODEBYE=  2.541746473194078    
_TOE= 0.4803204712570263E-09
_TOEV=  27.21138624598803    
_TOHERTZ=  6579683920501656.    
_TOHZ=  6579683920501656.    
_TOK=  315775.0248040668    
_TOKCAL=  627.5094740630558    
_TOKELVIN=  315775.0248040668    
_TOKJ=  2625.499639479825    
_TOKJOULE=  2625.499639479825    
_TOKG= 0.1660539066600000E-26
_ANG=  1.889726124625770    
_ANGSTROM=  1.889726124625770    
_RPAREF=  0.000000000000000    
_RPADISS=  0.000000000000000    
_IGNORE_UNDEF=  2.000000000000000    
_STRICTCHECK=  0.000000000000000    
!SEWARD=  0.000000000000000    
!MULTI=  0.000000000000000    
!DFMULTI=  0.000000000000000    
!NUMHESS=  0.000000000000000    
_SEW_ONEEL=  0.000000000000000    
_CPPDONE=FALSE
_DKROLL_DONE=  0.000000000000000    
_FNUC_DONE=  0.000000000000000    
_FOCKDONE=TRUE
_GRADONE=FALSE
_HESSDONE=TRUE
_INTDONE=TRUE
_SCFDONE=TRUE
_MODUL_BLOCK=FALSE
_MODUL_SLATER=TRUE
_MODUL_MRCC=FALSE
_MODUL_NBO6=FALSE
_MODUL_NECI=FALSE
_MODUL_AIMS=TRUE
_MODUL_HDF5=FALSE
_MODUL_GECCO=FALSE
_ISWINDOWS=FALSE
_MRCC_EXEC=
_FITC_AO_SAVED=FALSE
_FITC_MO_SAVED=FALSE
_LSTYP=SEWARD
_INTYP=INTS
_GEOMTYP=XYZ
_GRADTYP=ALASKA
_DIRECT=FALSE
_DKHO= -1.000000000000000    
_FNUC=  0.000000000000000    
_SYNCM=  0.000000000000000    
_BASIS=6-311G(D,P)
_ZCENTRE=MASS
_ZORIENT=  1.000000000000000    
_NELEC=  36.00000000000000    
!SPIN=  0.000000000000000    
_OPTCONV= 0.7061994973769548E-02
_QSDSTEP=  0.000000000000000    
_QSDIRC=  0.000000000000000    
_PROGRAM=FREQ
_CPUSTEP=  97.63000000000000    
_SYSSTEP=  4.020000000000000    
_WALLSTEP=  101.7000000000000    
!DFSCF=  0.000000000000000    
!SCSGRD=  0.000000000000000    
_NCEN=  12.00000000000000    
_CPUTOT=  273.0300000000000    
_DFTEXFAC=  1.000000000000000    
_DMX=-0.2356536349404477    
_DMY=-0.5391923996256969    
_DMZ=  1.156708850431205    
_DMX_SCF=-0.2356536349404477    
_DMY_SCF=-0.5391923996256969    
_DMZ_SCF=  1.156708850431205    
_FREQUENCIES= 0.3734664977209167E-04
_HOMO=  18.10000000000000    
_EHOMO=-0.4200112075446588    
_LUMO=  19.10000000000000    
_ELUMO= 0.1418722397440882    
_ENERGY= -230.1606610288929    
_ENERGY_METHOD=HF
_ENERGY_BASIS=6-311G(D,P)
_GEOMETRY_METHOD=HF
_GEOMETRY_BASIS=6-311G(D,P)
_ENUC=  129.5216685346288    
_GRADENERG= -230.1606603568222    
_GRADEXFAC=  9999.000000000000    
_GRADMETHOD=  1.000000000000000    
_NMRMETHOD=  0.000000000000000    
_NMRMAGNET=  0.000000000000000    
_VIRIAL=-0.1124636944275896E-03
!GRID_FREEZE= -1.000000000000000    
!NEESE_INDEX=  0.000000000000000    
_ITERATIONS=  11.00000000000000    
_LASTNELEC=  36.00000000000000    
_LASTSPIN=  0.000000000000000    
_LASTSYM=  1.000000000000000    
_MPP_PROG=  0.000000000000000    
_MSNSTATES=  0.000000000000000    
_RS2PHASE=  0.000000000000000    
_NPROC_MPP=  1.000000000000000    
_NPROC_SMP=  6.000000000000000    
_NUMSTEP=  0.000000000000000    
_OPTCONVMX= 0.4204872549643477E-02
_OPTCONVRMS= 0.1289337982707229E-02
_OPTGRAD= 0.1961010470508932E-03
_OPTGRADMX= 0.1347083338996124E-03
_OPTGRADRMS= 0.3580298900671872E-04
!GMAXLAST= 0.1347083338996124E-03
!DMAXLAST= 0.4204872549643477E-02
!DELAST= 0.2527537702690097E-05
_OPTSTEP=  25.00000000000000    
_ORBITAL=  2100.200000000000    
_PI=  3.141592653589793    
_SEIG_MIN= 0.8043763344835751E-02
_SEWPROP=TRUE
_STATUS=  1.000000000000000    
_SYSTOT=  13.74000000000000    
_VERSION=  2024001.000000000    
_WALLTOT=  286.8600000000000    
_ZPE= 0.1116083146043806    
_DATE=01-Oct-24
_LASTORB=0
_OUTPUT=/home/lme/decomposing-vibrations/test_calculations/hydrogen_bonded_clusters/CH3OH_dimer/ch3oh_dimer.out
_PGROUP=C1
_TIME=15:28:08
_LIBMOL=/usr/local/molpro/molpro_2024.1.0_sockets/lib/
_VIGRDC=  0.000000000000000    
!VIBCNT=  0.000000000000000    
!SURFREC=  0.000000000000000    
!XSURFREC=  0.000000000000000    
!XPOLYREC=  0.000000000000000    
!ROTREC=  0.000000000000000    
!POLYREC=  0.000000000000000    
!DIPREC=  0.000000000000000    
!DIP4DREC=  0.000000000000000    
!DIPROT=  0.000000000000000    
!DIP4DROT=  0.000000000000000    
!PTREC=  0.000000000000000    
!PT4DREC=  0.000000000000000    
!VSCFREC=  0.000000000000000    
!VCIREC=  0.000000000000000    
!PVCIREC=  0.000000000000000    
!VMP2REC=  0.000000000000000    
!VMCSCFREC=  0.000000000000000    
!VMRCIREC=  0.000000000000000    
!VIBSTATEREC=  0.000000000000000    
!VIBSTATECNT=  0.000000000000000    
!VIBINFO=  0.000000000000000    
!GAREC=  0.000000000000000    
!SCFORB=  21002.00000000000    
!DEFCORE=  4.000000000000000    
!SCORE=  0.000000000000000    
!NEWMOL=  0.000000000000000    
!NEWSYM=  0.000000000000000    
_SLFILES=slscratch
_NGSSTO=  9.000000000000000    
_SIN=SIN
_COS=COS
_TAN=TAN
_ACOS=ACOS
_ASIN=ASIN
_ATAN=ATAN
_COSH=COSH
_SINH=SINH
_TANH=TANH
_ABS=ABS
_MOD=MOD
_ERF=ERF
_REFC=REFC
_ERFC=ERFC
_HYPOT=HYPOT
_J0=J0
_J1=J1
_JN=JN
_GAMMA=GAMMA
_LGAMMA=LGAMMA
_Y0=Y0
_Y1=Y1
_YN=YN
_EXP=EXP
_LOG=LOG
_LOG10=LOG10
_SQRT=SQRT
_INT=INT
_NINT=NINT
_MAX=MAX
_MIN=MIN
_COSMO=  0.000000000000000    
_COSMOIT=  0.000000000000000    
_COSMOES=  0.000000000000000    
_COSMOEDS=  0.000000000000000    
_COSMOEC=  0.000000000000000    
_COSMOEDCORR=  0.000000000000000    
_FEPSI=  1.000000000000000    
_SL_IsMM=  0.000000000000000    
_SL_NSYM=  1.000000000000000    
_SL_System_BitSw=  0.000000000000000    
_SL_Unique_atoms=  0.000000000000000    
_SL_GRAD=  0.000000000000000    
_SL_MAXUPD_Hess=  5.000000000000000    
_SL_N_PRINT_COD=  5.000000000000000    
_SL_PRINT_CODES=  0.000000000000000    
_SL_BasType=  0.000000000000000    
_SL_Energy_Pred=  0.000000000000000    
_SL_New_Coords=  0.000000000000000    
_SL_Total_Nuclea=  0.000000000000000    
_SL_Highest_Mltp=  0.000000000000000    
_SL_Ref_Geom=  0.000000000000000    
_SL_Symmetry_ope=  1.000000000000000    
_SL_agrad=  0.000000000000000    
_SL_GrdMax=  0.000000000000000    
_SL_GrdNorm=  0.000000000000000    
_SL_GrdRMS=  0.000000000000000    
_SL_Hss_Q=  0.000000000000000    
_SL_Hss_X=  0.000000000000000    
_SL_BMxOld=  0.000000000000000    
_SL_KtB=  0.000000000000000    
_SL_TROld=  0.000000000000000    
_SL_No_of_Intern=  0.000000000000000    
_SL_Hess=  0.000000000000000    
_SL_K=  0.000000000000000    
!LATTICE= -1.000000000000000    
!NEWLATTICE=  0.000000000000000    
!LATGRAD_VAR=FALSE
!SEW_LATTICE=  1.000000000000000    
!AIC_ONEEL=  0.000000000000000    
!LOCAL=  0.000000000000000    
!SAVEDOM= -1.000000000000000    
!RESTDOM= -1.000000000000000    
!SAVEDOM_HF= -1.000000000000000    
!RESTDOM_HF= -1.000000000000000    
!HESSREC=  5300.200000000000    
!FREQREC=  5400.200000000000    
!NMODREC=  5450.200000000000    
!GTASKS=  0.000000000000000    
!HTASKS=  0.000000000000000    
!SAVEDOM_EOM= -1.000000000000000    
!RESTDOM_EOM= -1.000000000000000    
!GRADSTATE= -1.000000000000000    
!DEBUG=  0.000000000000000    
!CFIT_CPHF=  0.000000000000000    
!RDOMAUX_CPHF=  0.000000000000000    
!THRAO_CPHF= 0.1000000000000000E-11
!THRMO_CPHF= 0.1000000000000000E-11
!THROV_CPHF= 0.1000000000000000E-13
!THRSW_CPHF= 0.1000000000000000E-11
!THRPROD_CPHF= 0.1000000000000000E-11
!THRAOPR_CPHF= 0.1000000000000000E-11
!CFIT_SCFGRD=  0.000000000000000    
!RDOMAUX_SCFGRD=  0.000000000000000    
!THRAO_SCFGRD= 0.1000000000000000E-11
!THRMO_SCFGRD= 0.1000000000000000E-11
!THROV_SCFGRD= 0.1000000000000000E-13
!THRSW_SCFGRD= 0.1000000000000000E-11
!THRPROD_SCFGRD= 0.1000000000000000E-11
!THRAOPR_SCFGRD= 0.1000000000000000E-11
!LOCFIT_SCF=  0.000000000000000    
!LOCFIT_MP2=  0.000000000000000    
_RIDOM=  0.000000000000000    
!CC2_METHOD=  0.000000000000000    
_BASIS2006=FALSE
_SVDDEL= -1.000000000000000    
_SVDDELA= -1.000000000000000    
_SVDDELP= -1.000000000000000    
_SVDDELF= -1.000000000000000    
_SVDDELS= -1.000000000000000    
_SVDDEL_ABS= -1.000000000000000    
_SVDDELA_ABS= -1.000000000000000    
_SVDDELP_ABS= -1.000000000000000    
_SVDDELF_ABS= -1.000000000000000    
_SVDDELS_ABS= -1.000000000000000    
_MAXBASIS=  0.000000000000000    
!OPT_CONICAL=  0.000000000000000    
!CLEARSP_JGRID=  0.000000000000000    
_GRDHYBR=  0.000000000000000    
_STATEGRAD=  1.000000000000000    
_4EXT_NDISKS=  1.000000000000000    
!EMBEDFLAG=  1.000000000000000    
!EMBED=FALSE
!EMBED_F12=FALSE
!EMBEDNUC=  0.000000000000000    
_EMBEDENERGY=  0.000000000000000    
!EMBED_DFC=FALSE
!NUM_VOIDS=  0.000000000000000    
_IBODY=  0.000000000000000    
_EMBE_CORR=  0.000000000000000    
!EMBED_PROJ=FALSE
!EMB_PROJ_ZMU=  1000000.000000000    
!CORRECTION_HF=  0.000000000000000    
!EMBED_AORB=  0.000000000000000    
!EMBED_NACORR=  0.000000000000000    
!EMBED_MP2=FALSE
!EMBED_TRUNC_PERTURBATION=FALSE
!EMBED_FROZEN=  0.000000000000000    
!EMBED_ACTIVE=  0.000000000000000    
_CHANGE_BASIS=FALSE
_RESTORE_BASIS=FALSE
_FIX_EMBED_GUESS=FALSE
_EMBED_SCF=FALSE
_NEOBAS=FALSE
_NEOOVE=FALSE
_PRINEO=FALSE
_HUZINAGA_T=FALSE
_HUZINAGA_F=FALSE
_HUZINAGA=FALSE
_HUZINAGA_CORRECT=FALSE
!FASTLATGRAD=  1.000000000000000    
!FASTVLAMBDA= -1.000000000000000    
!IFORCE= -1.000000000000000    
!USESYM= -1.000000000000000    
_SINDEX=  0.000000000000000    
_AVDOM_OSV=  0.000000000000000    
_AVDOM_PNO=  0.000000000000000    
_AVDOM_PNOCC=  0.000000000000000    
_AVDOM_TNO=  0.000000000000000    
_AVDOM_TNOIT=  0.000000000000000    
_AVDOM_PAO=  0.000000000000000    
_AVDOM_LMO=  0.000000000000000    
_CC2OSV_FLAG=  0.000000000000000    
_EOMCCSD_CONV=FALSE
_TMADC2_FLAG=FALSE
_PROPADC2_FLAG=FALSE
_LEN_VirQ=  0.000000000000000    
_GRDCC2LR_FLAG=FALSE
_GRDADC2_FLAG=FALSE
_RO_VGLOBAL=  0.000000000000000    
_OPT=FALSE
_FREQ=FALSE
_HESS=FALSE
_CMRCC_callName=EMPTY
_CMRCC_callCount=  0.000000000000000    
_GECCO_CIROOT=  1.000000000000000    
_SYM_CATION=  1.000000000000000    
_MON_A=FALSE
_MON_B=FALSE
_MAXGEOM=  100.0000000000000    
!MAXGEOM=  100.0000000000000    
_NCORE=  0.000000000000000    
_NLARGECORE=  0.000000000000000    
GX1= 0.4525804400057676    
GY1= 0.4747382893423582    
GZ1= -1.368811023238879    
GX2= 0.5304496522242876    
GY2= 0.4284056793473139E-01
GZ2=-0.5333879275559190    
GX3=-0.4131763754296475    
GY3=-0.2590434850128333    
GZ3= -2.179639512726033    
GX4=-0.5035940568575801    
GY4= 0.2608221034462198    
GZ4= -3.125707713778399    
GX5=-0.3757526591324963E-01
GY5= -1.262053221495436    
GZ5= -2.379307926767038    
GX6= -1.407673459940167    
GY6=-0.3477690398165101    
GZ6= -1.744243399055165    
GX7= 0.2235113359589631    
GY7=-0.5913871564637564    
GZ7=  1.340276350332538    
GX8= 0.7178440709007529    
GY8= -1.184631268208043    
GZ8=  1.876087312203249    
GX9=-0.3128711191258269    
GY9= 0.4415147495327076    
GZ9=  2.129009605870468    
GX10=-0.8121604206746500    
GY10=  1.125796807214989    
GZ10=  1.457622936474389    
GX11= -1.036591614366061    
GY11= 0.5983134738104281E-01
GZ11=  2.843976620673427    
GX12= 0.4641601488966666    
GY12= 0.9838102435129746    
GZ12=  2.660667593931408    
OX1= 0.8552530809735251    
OY1= 0.8971253477304021    
OZ1= -2.586677950290242    
HX2=  1.002404565606891    
HY2= 0.8095694042006703E-01
HZ2= -1.007957101262418    
CX3=-0.7807901907275900    
CY3=-0.4895212410428552    
CZ3= -4.118921729464969    
HX4=-0.9516548454500445    
HY4= 0.4928823427621666    
HZ4= -5.906731524671330    
HX5=-0.7100696163602802E-01
HY5= -2.384934943328039    
HZ5= -4.496240347740851    
HX6= -2.660117312191282    
HY6=-0.6571882398772788    
HZ6= -3.296142318900598    
OX7= 0.4223752107116600    
OY7= -1.117559759337708    
OZ7=  2.532755233441478    
HX8=  1.356528694188866    
HY8= -2.238628655581296    
HZ8=  3.545291205949423    
CX9=-0.5912407274529766    
CY9= 0.8343419565995612    
CZ9=  4.023245071792639    
HX10= -1.534760764335942    
HY10=  2.127447637614447    
HZ10=  2.754508142909382    
HX11= -1.958874254235548    
HY11= 0.1130648602175163    
HZ11=  5.374336917911489    
HX12= 0.8771355593802181    
HY12=  1.859131918840909    
HZ12=  5.027933061197372    
[Atoms] Angs
O     1    8         0.4525804400        0.4747382893       -1.3688110232
H     2    1         0.5304496522        0.0428405679       -0.5333879276
C     3    6        -0.4131763754       -0.2590434850       -2.1796395127
H     4    1        -0.5035940569        0.2608221034       -3.1257077138
H     5    1        -0.0375752659       -1.2620532215       -2.3793079268
H     6    1        -1.4076734599       -0.3477690398       -1.7442433991
O     7    8         0.2235113360       -0.5913871565        1.3402763503
H     8    1         0.7178440709       -1.1846312682        1.8760873122
C     9    6        -0.3128711191        0.4415147495        2.1290096059
H    10    1        -0.8121604207        1.1257968072        1.4576229365
H    11    1        -1.0365916144        0.0598313474        2.8439766207
H    12    1         0.4641601489        0.9838102435        2.6606675939
[GTO]
   1 0
 s    6  1.00
  0.8588500000D+04  0.1895150083D-02
  0.1297230000D+04  0.1438590063D-01
  0.2992960000D+03  0.7073200310D-01
  0.8737710000D+02  0.2400010105D+00
  0.2567890000D+02  0.5947970261D+00
  0.3740040000D+01  0.2808020123D+00
 s    3  1.00
  0.4211750000D+02  0.1138890124D+00
  0.9628370000D+01  0.9208111006D+00
  0.2853320000D+01 -0.3274470358D-02
 s    1  1.00
  0.9056610000D+00  0.1000000000D+01
 s    1  1.00
  0.2556110000D+00  0.1000000000D+01
 p    3  1.00
  0.4211750000D+02  0.3651139738D-01
  0.9628370000D+01  0.2371529830D+00
  0.2853320000D+01  0.8197019412D+00
 p    1  1.00
  0.9056610000D+00  0.1000000000D+01
 p    1  1.00
  0.2556110000D+00  0.1000000000D+01
 d    1  1.00
  0.1292000000D+01  0.1000000000D+01
  
   2 0
 s    3  1.00
  0.3386500000D+02  0.2549381454D-01
  0.5094790000D+01  0.1903731086D+00
  0.1158790000D+01  0.8521614860D+00
 s    1  1.00
  0.3258400000D+00  0.1000000000D+01
 s    1  1.00
  0.1027410000D+00  0.1000000000D+01
 p    1  1.00
  0.7500000000D+00  0.1000000000D+01
  
   3 0
 s    6  1.00
  0.4563240000D+04  0.1966650249D-02
  0.6820240000D+03  0.1523060193D-01
  0.1549730000D+03  0.7612690966D-01
  0.4445530000D+02  0.2608010331D+00
  0.1302900000D+02  0.6164620782D+00
  0.1827730000D+01  0.2210060280D+00
 s    3  1.00
  0.2096420000D+02  0.1146600807D+00
  0.4803310000D+01  0.9199996477D+00
  0.1459330000D+01 -0.3030682134D-02
 s    1  1.00
  0.4834560000D+00  0.1000000000D+01
 s    1  1.00
  0.1455850000D+00  0.1000000000D+01
 p    3  1.00
  0.2096420000D+02  0.4024869267D-01
  0.4803310000D+01  0.2375939567D+00
  0.1459330000D+01  0.8158538515D+00
 p    1  1.00
  0.4834560000D+00  0.1000000000D+01
 p    1  1.00
  0.1455850000D+00  0.1000000000D+01
 d    1  1.00
  0.6260000000D+00  0.1000000000D+01
  
   4 0
 s    3  1.00
  0.3386500000D+02  0.2549381454D-01
  0.5094790000D+01  0.1903731086D+00
  0.1158790000D+01  0.8521614860D+00
 s    1  1.00
  0.3258400000D+00  0.1000000000D+01
 s    1  1.00
  0.1027410000D+00  0.1000000000D+01
 p    1  1.00
  0.7500000000D+00  0.1000000000D+01
  
   5 0
 s    3  1.00
  0.3386500000D+02  0.2549381454D-01
  0.5094790000D+01  0.1903731086D+00
  0.1158790000D+01  0.8521614860D+00
 s    1  1.00
  0.3258400000D+00  0.1000000000D+01
 s    1  1.00
  0.1027410000D+00  0.1000000000D+01
 p    1  1.00
  0.7500000000D+00  0.1000000000D+01
  
   6 0
 s    3  1.00
  0.3386500000D+02  0.2549381454D-01
  0.5094790000D+01  0.1903731086D+00
  0.1158790000D+01  0.8521614860D+00
 s    1  1.00
  0.3258400000D+00  0.1000000000D+01
 s    1  1.00
  0.1027410000D+00  0.1000000000D+01
 p    1  1.00
  0.7500000000D+00  0.1000000000D+01
  
   7 0
 s    6  1.00
  0.8588500000D+04  0.1895150083D-02
  0.1297230000D+04  0.1438590063D-01
  0.2992960000D+03  0.7073200310D-01
  0.8737710000D+02  0.2400010105D+00
  0.2567890000D+02  0.5947970261D+00
  0.3740040000D+01  0.2808020123D+00
 s    3  1.00
  0.4211750000D+02  0.1138890124D+00
  0.9628370000D+01  0.9208111006D+00
  0.2853320000D+01 -0.3274470358D-02
 s    1  1.00
  0.9056610000D+00  0.1000000000D+01
 s    1  1.00
  0.2556110000D+00  0.1000000000D+01
 p    3  1.00
  0.4211750000D+02  0.3651139738D-01
  0.9628370000D+01  0.2371529830D+00
  0.2853320000D+01  0.8197019412D+00
 p    1  1.00
  0.9056610000D+00  0.1000000000D+01
 p    1  1.00
  0.2556110000D+00  0.1000000000D+01
 d    1  1.00
  0.1292000000D+01  0.1000000000D+01
  
   8 0
 s    3  1.00
  0.3386500000D+02  0.2549381454D-01
  0.5094790000D+01  0.1903731086D+00
  0.1158790000D+01  0.8521614860D+00
 s    1  1.00
  0.3258400000D+00  0.1000000000D+01
 s    1  1.00
  0.1027410000D+00  0.1000000000D+01
 p    1  1.00
  0.7500000000D+00  0.1000000000D+01
  
   9 0
 s    6  1.00
  0.4563240000D+04  0.1966650249D-02
  0.6820240000D+03  0.1523060193D-01
  0.1549730000D+03  0.7612690966D-01
  0.4445530000D+02  0.2608010331D+00
  0.1302900000D+02  0.6164620782D+00
  0.1827730000D+01  0.2210060280D+00
 s    3  1.00
  0.2096420000D+02  0.1146600807D+00
  0.4803310000D+01  0.9199996477D+00
  0.1459330000D+01 -0.3030682134D-02
 s    1  1.00
  0.4834560000D+00  0.1000000000D+01
 s    1  1.00
  0.1455850000D+00  0.1000000000D+01
 p    3  1.00
  0.2096420000D+02  0.4024869267D-01
  0.4803310000D+01  0.2375939567D+00
  0.1459330000D+01  0.8158538515D+00
 p    1  1.00
  0.4834560000D+00  0.1000000000D+01
 p    1  1.00
  0.1455850000D+00  0.1000000000D+01
 d    1  1.00
  0.6260000000D+00  0.1000000000D+01
  
  10 0
 s    3  1.00
  0.3386500000D+02  0.2549381454D-01
  0.5094790000D+01  0.1903731086D+00
  0.1158790000D+01  0.8521614860D+00
 s    1  1.00
  0.3258400000D+00  0.1000000000D+01
 s    1  1.00
  0.1027410000D+00  0.1000000000D+01
 p    1  1.00
  0.7500000000D+00  0.1000000000D+01
  
  11 0
 s    3  1.00
  0.3386500000D+02  0.2549381454D-01
  0.5094790000D+01  0.1903731086D+00
  0.1158790000D+01  0.8521614860D+00
 s    1  1.00
  0.3258400000D+00  0.1000000000D+01
 s    1  1.00
  0.1027410000D+00  0.1000000000D+01
 p    1  1.00
  0.7500000000D+00  0.1000000000D+01
  
  12 0
 s    3  1.00
  0.3386500000D+02  0.2549381454D-01
  0.5094790000D+01  0.1903731086D+00
  0.1158790000D+01  0.8521614860D+00
 s    1  1.00
  0.3258400000D+00  0.1000000000D+01
 s    1  1.00
  0.1027410000D+00  0.1000000000D+01
 p    1  1.00
  0.7500000000D+00  0.1000000000D+01


[MO]
 Sym=      1.1
 Ene=     -20.5662
 Spin= Alpha
 Occup=    2.000000
1 -0.000023961985821
2 -0.000026384042496
3 0.000046122094334
4 -0.000122706514520
5 -0.000006231285919
6 0.000001857673713
7 -0.000009460604052
8 0.000021849098473
9 -0.000007411800257
10 0.000036927449359
11 -0.000040330987219
12 0.000025744470519
13 -0.000127911586541
14 0.000000025399022
15 0.000001172289141
16 -0.000001197688163
17 -0.000003872425209
18 0.000004269513503
19 -0.000002471698738
20 -0.000035970266677
21 0.000154238093533
22 0.000156249677795
23 -0.000015616382861
24 -0.000011062149209
25 0.000048363703101
26 0.000000250105397
27 -0.000001421096055
28 0.000012036040856
29 -0.000103389168212
30 -0.000000531731516
31 -0.000000618932410
32 -0.000003347645131
33 -0.000000543652042
34 -0.000000309288418
35 0.000019755913727
36 -0.000029963107958
37 -0.000034136532143
38 -0.000018729262875
39 0.000007278207249
40 -0.000005465389195
41 -0.000001812818054
42 -0.000000551816670
43 0.000001122463332
44 0.000008283951327
45 0.000001182308471
46 0.000030254052494
47 -0.000000379097238
48 0.000001979564841
49 -0.000004530534326
50 0.000007565821786
51 -0.000001967270743
52 0.000020354206074
53 -0.000022241230640
54 0.000001117772063
55 0.000004459863466
56 -0.000001589547110
57 0.000002560244977
58 -0.000008847999337
59 0.000013798667225
60 -0.000001715515272
61 0.000001924792509
62 -0.000000073405287
63 0.55143721042153
64 0.47165916095048
65 0.005681361799000
66 -0.000766613780706
67 0.000256230464341
68 0.000142711674326
69 0.001627279411531
70 -0.000086469762313
71 -0.000036584596176
72 -0.000633909959142
73 0.000116148067312
74 -0.000212166894467
75 0.000157782273460
76 0.000063059204099
77 -0.000049948074959
78 -0.000013111129140
79 0.000134224968863
80 0.000010701621067
81 -0.000056645414160
82 0.000202321804137
83 0.000019294094548
84 0.000051986761090
85 -0.000025928985849
86 0.000061003723965
87 0.000003959745661
88 -0.000002804193328
89 -0.000029920956434
90 0.000084283927347
91 0.000504970283421
92 0.000005199730875
93 -0.000019933276459
94 -0.000024107782614
95 0.000111628734130
96 -0.000189052940060
97 -0.000106032888288
98 -0.000004681288843
99 -0.000064003403993
100 -0.000209533306900
101 -0.000017480856549
102 0.000040259806520
103 -0.000022778949970
104 -0.000059553466099
105 -0.000053973635540
106 0.000078748500517
107 0.000021054352799
108 -0.000102894568034
109 -0.000097309903587
110 0.000005954159100
111 -0.000007432388537
112 0.000010093232510
113 0.000011229150472
114 -0.000072764065475
115 0.000002089391026
116 0.000004839532443
117 0.000016742490189
118 0.000023306795192
119 0.000006938741947
120 -0.000048224179379
121 0.000001940205582
122 -0.000017029617663
123 0.000005433075860
124 0.000022738011653
 Sym=      2.1
 Ene=     -20.5127
 Spin= Alpha
 Occup=    2.000000
1 0.55143520209152
2 0.47165951673572
3 0.005692455162749
4 -0.000866190554629
5 -0.000812191845334
6 -0.001439960488860
7 0.000383807556513
8 0.000304456894316
9 0.000519217121338
10 -0.000118873719501
11 0.000052186763761
12 -0.000001071398115
13 0.000127871311647
14 0.000031670031084
15 0.000022661529458
16 -0.000054331560542
17 -0.000100598835525
18 -0.000116298914434
19 -0.000023965156323
20 0.000201905899420
21 0.000082231323741
22 0.000209700210917
23 -0.000044334351549
24 -0.000011142830968
25 -0.000069077800449
26 -0.000002581691004
27 -0.000034314317471
28 0.000106060714988
29 0.000469117062869
30 0.000020497914350
31 0.000025638233533
32 0.000005362686436
33 0.000157099882708
34 0.000105165166205
35 0.000197657796370
36 0.000123580438106
37 0.000182410151064
38 -0.000014414569130
39 0.000013540427273
40 -0.000036042793753
41 0.000022502366480
42 0.000050403431881
43 0.000092926186425
44 0.000078253213931
45 0.000029424446263
46 -0.000120700910030
47 -0.000055265276411
48 -0.000000807006361
49 -0.000009096373796
50 0.000011514557844
51 0.000006674376524
52 -0.000038839839197
53 -0.000022272528452
54 -0.000030008076229
55 -0.000009182617187
56 -0.000000886590959
57 0.000008866954022
58 -0.000048141815289
59 -0.000002677700049
60 -0.000003211468600
61 -0.000028366697673
62 -0.000013686641785
63 0.000024680746025
64 0.000020567692724
65 0.000003736293667
66 0.000002723480767
67 -0.000001247923943
68 -0.000000394396642
69 0.000008306906216
70 0.000002383041059
71 0.000000106572971
72 -0.000024688109501
73 -0.000022211129611
74 0.000011824141466
75 0.000090314653676
76 -0.000000570588094
77 0.000000469675604
78 0.000000100912490
79 0.000000323864337
80 0.000000175913240
81 0.000003831071601
82 -0.000006247565041
83 0.000013856121856
84 -0.000025711803979
85 0.000004360956313
86 -0.000001618122899
87 -0.000011655059650
88 -0.000000008085771
89 -0.000000032131017
90 0.000003943499925
91 -0.000073607638664
92 0.000001412876121
93 -0.000002945100465
94 0.000003494374548
95 -0.000008446006239
96 0.000012389846725
97 -0.000013132460704
98 -0.000018210129493
99 0.000015649024700
100 0.000028976153801
101 -0.000000039923228
102 -0.000005871730077
103 0.000005911653306
104 0.000000765207654
105 -0.000000258586074
106 -0.000002483199020
107 -0.000000225566266
108 0.000002707897817
109 -0.000003208337014
110 -0.000002083690578
111 0.000003103921614
112 0.000001001014970
113 0.000000850938135
114 0.000004171267026
115 0.000001153783029
116 0.000001578637419
117 -0.000001546043802
118 -0.000001975299337
119 -0.000003209451057
120 0.000024872316582
121 -0.000004500937843
122 -0.000001301248392
123 -0.000003847466380
124 -0.000004770791886
 Sym=      3.1
 Ene=     -11.2782
 Spin= Alpha
 Occup=    2.000000
1 0.000000030025444
2 0.000000472767828
3 -0.000002871135370
4 0.000001323099835
5 0.000001300835143
6 -0.000002066907811
7 -0.000000010217565
8 -0.000003752870777
9 0.000007051658438
10 -0.000002234824530
11 0.000005298700810
12 -0.000007942208830
13 -0.000016814304011
14 0.000001635817005
15 0.000000726038304
16 -0.000002361855309
17 0.000000531535184
18 -0.000000372143339
19 0.000002778268944
20 0.000003191279409
21 0.000004435472800
22 -0.000011396856424
23 0.000001030727315
24 0.000004757544517
25 -0.000014764551636
26 0.000000074188911
27 0.000000294503399
28 -0.000002175983879
29 0.000007675024281
30 -0.000000836353422
31 -0.000000530961850
32 -0.000000628359692
33 0.000004841718206
34 0.000001025952232
35 0.000001098380938
36 -0.000017660987823
37 -0.000009219089945
38 -0.000003350900355
39 -0.000003250626693
40 0.000001746598705
41 0.000001504027989
42 -0.000002337453035
43 -0.000000070301801
44 0.000000304222611
45 0.000000021614359
46 -0.000001215162454
47 0.000004620158533
48 0.000000447011082
49 0.000001381180425
50 0.000000536861587
51 0.000000471127342
52 -0.000005445920907
53 0.000007609141270
54 0.000001359139703
55 -0.000000703387756
56 0.000001014062105
57 -0.000002969100649
58 0.000015701027137
59 -0.000040410436374
60 0.000000619967960
61 0.000000218139501
62 -0.000000696514333
63 -0.000071743486410
64 -0.000129880215069
65 0.000301423542485
66 0.000375731444730
67 -0.000035441401499
68 0.000072819733395
69 0.000063901062093
70 -0.000224716037345
71 0.000423604534048
72 0.000310558473668
73 -0.000058861918414
74 0.000121564428101
75 0.000089418654659
76 -0.000068269858120
77 0.000060281969223
78 0.000007987888896
79 -0.000093715729289
80 -0.000094657398554
81 0.000180456946916
82 -0.000010354793739
83 0.000027427048803
84 -0.000029170100754
85 -0.000027039864996
86 0.000031164238043
87 -0.000028979953247
88 0.56343381042764
89 0.46655614972467
90 0.004172670135843
91 -0.001285176317377
92 0.000442618817589
93 -0.000822565185111
94 -0.000510781623710
95 -0.000349309154051
96 0.000653324072554
97 0.000390978993599
98 0.000074463433337
99 -0.000129223784332
100 -0.000039889787833
101 0.000072973421177
102 -0.000095009472737
103 0.000022036051560
104 0.000129840599152
105 0.000132670220910
106 -0.000238627322920
107 0.000346427254263
108 0.000016703345992
109 0.000324952451471
110 -0.000009276958579
111 0.000001229539945
112 -0.000057948965115
113 0.000349343986200
114 0.000068490300325
115 0.000260607442241
116 -0.000001863435819
117 -0.000043968315268
118 -0.000003580262733
119 0.000349314486106
120 0.000064857426109
121 0.000261666442737
122 0.000040445141497
123 -0.000018563979362
124 -0.000007083523602
 Sym=      4.1
 Ene=     -11.2470
 Spin= Alpha
 Occup=    2.000000
1 -0.000074557426442
2 -0.000133991901315
3 0.000319287185673
4 0.000305296787542
5 -0.000073008530848
6 -0.000066242480054
7 -0.000060618254794
8 -0.000339628305979
9 -0.000277412431964
10 -0.000339190278015
11 -0.000083309560504
12 -0.000068295082822
13 -0.000073555677542
14 0.000028280806465
15 -0.000005995161439
16 -0.000022285645026
17 0.000131114160382
18 0.000127768045385
19 0.000128611451746
20 -0.000009273740363
21 0.000037892688248
22 -0.000018479904116
23 -0.000009025109538
24 0.000019899280418
25 -0.000048893407646
26 0.56344111122282
27 0.46655838028016
28 0.004125949735672
29 -0.001229755984758
30 0.000537403272874
31 0.000420824990824
32 0.000554580620673
33 -0.000432804324178
34 -0.000333915799473
35 -0.000447395702592
36 0.000083070426787
37 0.000053131351381
38 0.000095490035397
39 -0.000033004892738
40 0.000021362713367
41 0.000011642179371
42 -0.000133886039920
43 -0.000152790172944
44 -0.000152824649488
45 0.000348770523601
46 0.000057886451089
47 0.000274752698530
48 0.000021150225041
49 0.000037246110417
50 -0.000007605556959
51 0.000349133976412
52 0.000082716366144
53 0.000255939842499
54 0.000032698239226
55 0.000000685252970
56 0.000020526409777
57 0.000350364095647
58 0.000076096610488
59 0.000268380309392
60 0.000004118486698
61 0.000019273902295
62 0.000033423445186
63 -0.000000028455581
64 0.000000140868067
65 -0.000002007596144
66 0.000011880271168
67 0.000000639888762
68 0.000000427364387
69 -0.000000233360408
70 -0.000001040087775
71 -0.000000663196202
72 -0.000000085492022
73 0.000001671564175
74 0.000005211516270
75 0.000003034339122
76 0.000000195891556
77 0.000000137504894
78 -0.000000333396450
79 -0.000000126078257
80 -0.000000189309822
81 -0.000000011827441
82 -0.000001377804778
83 0.000003357170652
84 -0.000004002197670
85 -0.000000396760837
86 -0.000000989340768
87 -0.000000034316274
88 -0.000000148665858
89 0.000000125458125
90 -0.000002146790672
91 0.000008184189290
92 -0.000000140401132
93 0.000000731025219
94 0.000000027586955
95 0.000002245276437
96 -0.000002424575560
97 0.000001462683472
98 -0.000000942437866
99 0.000013459410261
100 0.000005774571751
101 0.000000638613417
102 -0.000000671638019
103 0.000000033024601
104 0.000002760703771
105 0.000001076214172
106 0.000000881163745
107 -0.000002435165561
108 0.000015118413353
109 -0.000031421467796
110 0.000000187735671
111 -0.000000532336141
112 0.000000422852557
113 -0.000000597349245
114 0.000001278964492
115 0.000002508175293
116 -0.000000523932859
117 -0.000001004914392
118 -0.000001553227161
119 0.000000911649628
120 -0.000009042557045
121 0.000003762920093
122 0.000002028369340
123 0.000000757624005
124 0.000000037360864