
 Working directory              : /scratch/ddi/mpscr/molpro.X4czumCGaf/
 Global scratch directory       : /scratch/ddi/mpscr/molpro.X4czumCGaf/
 Wavefunction directory         : /home/ddi/storage_4/Kemal/NH3/
 Main file repository           : /home/ddi/storage_4/Kemal/NH3/

 id        : liedlgroup

 Nodes     nprocs
 ae2-c724     1
 GA implementation: MPI file
 GA implementation (serial work in mppx): MPI file

 Using customized tuning parameters: mindgm=1; mindgv=20; mindgc=4; mindgr=1; noblas=0; minvec=7
 default implementation of scratch files=df  


 Variables initialized (1015), CPU time= 0.01 sec
 ***,nh3 (ammoniak) vibrational spectrum
 memory,256,m
 
 orient,mass
 geometry={
 H1
 N,H1,B1
 H2,N,B1,H1,A1
 H3,N,B1,H2,A1,H1,D1
 }
  B1=                  1.08617963 ANG
  A1=                109.47122029 DEGREE
  D1= 100.00 DEGREE
 mass,iso
 basis=vtz
 {hf
 start,atden}
 mp2
 optg
 {frequencies, symm=auto, print=0}
 put,molden,nh3_molden.dat
 Commands initialized (818), CPU time= 0.00 sec, 672 directives.
 Default parameters read. Elapsed time= 0.08 sec

 Checking input...
 Passed
1


                                         ***  PROGRAM SYSTEM MOLPRO  ***
                                       Copyright, TTI GmbH Stuttgart, 2015
                                    Version 2022.1 linked Jan 25 2022 12:44:58


 **********************************************************************************************************************************
 LABEL *   nh3 (ammoniak) vibrational spectrum                                           
  64 bit serial version                                                                  DATE: 23-Feb-22          TIME: 19:34:00  
 **********************************************************************************************************************************

 SHA1:             f3d4322b9bdbeed63a35be676bd653804e8a9433
 **********************************************************************************************************************************

 Memory per process:       256 MW
 Total memory per node:    256 MW

 GA preallocation disabled
 GA check disabled

 Variable memory set to 256.0 MW

 ZCENTRE=MASS

 SETTING B1             =         1.08617963  ANG                             
 SETTING A1             =       109.47122029  DEGREE                          
 SETTING D1             =       100.00000000  DEGREE                          


 Using masses of most abundant isotopes

 **********************************************************************************************************************************
 SETTING BASIS          =    VTZ


 Recomputing integrals since basis changed


 Using spherical harmonics

 Library entry H      S cc-pVTZ              selected for orbital group  1
 Library entry H      P cc-pVTZ              selected for orbital group  1
 Library entry H      D cc-pVTZ              selected for orbital group  1
 Library entry N      S cc-pVTZ              selected for orbital group  2
 Library entry N      P cc-pVTZ              selected for orbital group  2
 Library entry N      D cc-pVTZ              selected for orbital group  2
 Library entry N      F cc-pVTZ              selected for orbital group  2


 PROGRAM * SEWARD (Integral evaluation for generally contracted gaussian basis sets)     Author: Roland Lindh, 1990

 Geometry written to block  1 of record 700

 Orientation using atomic masses  
 Molecule type: Asymmetric top
 Symmetry elements: X
 Rotational constants:     228.1201632    170.8033385    290.8755866 GHz

 Point group  Cs  



 ATOMIC COORDINATES

 NR  ATOM    CHARGE       X              Y              Z

   1  H1      1.00   -1.482443763    0.623769689   -1.157044750
   2  H3      1.00    1.482443763    0.623769689   -1.157044750
   3  N       7.00    0.000000000   -0.148909166    0.033929993
   4  H2      1.00    0.000000000    0.821456202    1.842654409

 Bond lengths in Bohr (Angstrom)

 1-3  2.052582023  2-3  2.052582023  3-4  2.052582023
     ( 1.086179630)     ( 1.086179630)     ( 1.086179630)

 Bond angles

  1-3-2   92.47840442   1-3-4  109.47122029   2-3-4  109.47122029

 NUCLEAR CHARGE:                   10
 NUMBER OF PRIMITIVE AOS:          98
 NUMBER OF SYMMETRY AOS:           90
 NUMBER OF CONTRACTIONS:           72   (   44A'  +   28A"  )
 NUMBER OF INNER CORE ORBITALS:     0   (    0A'  +    0A"  )
 NUMBER OF OUTER CORE ORBITALS:     1   (    1A'  +    0A"  )
 NUMBER OF VALENCE ORBITALS:        7   (    5A'  +    2A"  )


 NUCLEAR REPULSION ENERGY   11.16498214

 Eigenvalues of metric

         1 0.190E-02 0.452E-02 0.470E-02 0.116E-01 0.150E-01 0.370E-01 0.417E-01 0.584E-01
         2 0.426E-02 0.110E-01 0.435E-01 0.537E-01 0.805E-01 0.108E+00 0.179E+00 0.200E+00


 Contracted 2-electron integrals neglected if value below      1.0D-11
 AO integral compression algorithm  1   Integral accuracy      1.0D-11

     10.486 MB (compressed) written to integral file ( 56.4%)


 NUMBER OF SORTED TWO-ELECTRON INTEGRALS:    1778986.     BUFFER LENGTH:  32768
 NUMBER OF SEGMENTS:   1  SEGMENT LENGTH:    1778986      RECORD LENGTH: 524288

 Memory used in sort:       2.34 MW

 SORT1 READ     2294234. AND WROTE     1699081. INTEGRALS IN      5 RECORDS. CPU TIME:     0.01 SEC, REAL TIME:     0.03 SEC
 SORT2 READ     1699081. AND WROTE     1778986. INTEGRALS IN     40 RECORDS. CPU TIME:     0.05 SEC, REAL TIME:     0.05 SEC

 FILE SIZES:   FILE 1:    40.6 MBYTE,  FILE 4:    21.0 MBYTE,   TOTAL:     61.6 MBYTE

 OPERATOR DM      FOR CENTER  0  COORDINATES:    0.000000    0.000000    0.000000


 **********************************************************************************************************************************
 DATASETS  * FILE   NREC   LENGTH (MB)   RECORD NAMES
              1      19       36.40       500      610      700      900      950      970     1000      129      960     1100   
                                          VAR    BASINP    GEOM    SYMINP    ZMAT    AOBASIS   BASIS     P2S    ABASIS      S 
                                         1400     1410     1200     1210     1080     1600     1650     1300     1700   
                                           T        V       H0       H01     AOSYM     SMH    MOLCAS    ERIS     OPER   

 PROGRAMS   *        TOTAL       INT
 CPU TIMES  *         0.35      0.27
 REAL TIME  *         0.51 SEC
 DISK USED  *        59.05 MB
 **********************************************************************************************************************************


 Program * Restricted Hartree-Fock

 Orbital guess generated from atomic densities. Full valence occupancy:    6   2

 Initial occupancy:   4   1

 NELEC=   10   SYM=1   MS2= 0   THRE=1.0D-08   THRD=1.0D-06   THRG=1.0D-06  HFMA2=F  DIIS_START=2   DIIS_MAX=10   DIIS_INCORE=F

 Level shifts:    0.00 (CLOSED)    0.00 (OPEN)    0.30 (GAP_MIN)

 ITER           ETOT              DE          GRAD        DDIFF     DIIS  NEXP   TIME(IT)  TIME(TOT)  DIAG
   1      -56.17235257     -56.17235257     0.00D+00     0.11D+00     0     0       0.00      0.00    start
   2      -56.19186456      -0.01951199     0.11D-01     0.14D-01     1     0       0.01      0.01    diag
   3      -56.19667145      -0.00480689     0.58D-02     0.51D-02     2     0       0.01      0.02    diag
   4      -56.19692360      -0.00025215     0.93D-03     0.10D-02     3     0       0.01      0.03    diag
   5      -56.19694776      -0.00002416     0.25D-03     0.34D-03     4     0       0.01      0.04    diag
   6      -56.19694915      -0.00000140     0.49D-04     0.95D-04     5     0       0.00      0.04    diag
   7      -56.19694925      -0.00000009     0.12D-04     0.27D-04     6     0       0.01      0.05    diag
   8      -56.19694925      -0.00000000     0.25D-05     0.55D-05     7     0       0.01      0.06    fixocc
   9      -56.19694925      -0.00000000     0.52D-06     0.12D-05     8     0       0.00      0.06    diag
  10      -56.19694925      -0.00000000     0.14D-06     0.41D-06     9     0       0.01      0.07    diag/orth
  11      -56.19694925      -0.00000000     0.20D-07     0.27D-07     0     0       0.01      0.08    diag

 Final occupancy:   4   1

 !RHF STATE 1.1 Energy                -56.196949250847
  RHF One-electron energy             -98.162870793253
  RHF Two-electron energy              30.800939399278
  RHF Kinetic energy                   55.831743965159
  RHF Nuclear energy                   11.164982143128
  RHF Virial quotient                  -1.006541176394

 !RHF STATE 1.1 Dipole moment           0.00000000     0.68801162    -0.10681035
 Dipole moment /Debye                   0.00000000     1.74875111    -0.27148484

 Orbital energies:

           1.1          2.1          3.1          4.1          5.1          6.1
    -15.561028    -1.107247    -0.614398    -0.431487     0.129748     0.207298

           1.2          2.2          3.2
     -0.566336     0.214287     0.450157


 HOMO      4.1    -0.431487 =     -11.7414eV
 LUMO      5.1     0.129748 =       3.5306eV
 LUMO-HOMO         0.561236 =      15.2720eV

 Orbitals saved in record  2100.2


 **********************************************************************************************************************************
 DATASETS  * FILE   NREC   LENGTH (MB)   RECORD NAMES
              1      19       36.40       500      610      700      900      950      970     1000      129      960     1100   
                                          VAR    BASINP    GEOM    SYMINP    ZMAT    AOBASIS   BASIS     P2S    ABASIS      S 
                                         1400     1410     1200     1210     1080     1600     1650     1300     1700   
                                           T        V       H0       H01     AOSYM     SMH    MOLCAS    ERIS     OPER   

              2       4        0.42       700     1000      520     2100   
                                         GEOM     BASIS   MCVARS     RHF  

 PROGRAMS   *        TOTAL    HF-SCF       INT
 CPU TIMES  *         0.44      0.09      0.27
 REAL TIME  *         0.62 SEC
 DISK USED  *        59.05 MB
 **********************************************************************************************************************************


 PROGRAM * MP2 (Closed-shell)     Authors: C. Hampel, H.-J. Werner, 1991, M. Deegan, P.J. Knowles, 1992


 Convergence thresholds:  THRVAR = 1.00D-12  THRDEN = 1.00D-08

 Number of core orbitals:           1 (   1   0 )
 Number of closed-shell orbitals:   4 (   3   1 )
 Number of external orbitals:      67 (  40  27 )

 Molecular orbitals read from record     2100.2  Type=RHF/CANONICAL  

 Number of N-1 electron functions:               4
 Number of N-2 electron functions:              10
 Number of singly external CSFs:               147
 Number of doubly external CSFs:             18259
 Total number of CSFs:                       18407

 Length of J-op  integral file:               0.00 MB
 Length of K-op  integral file:               0.22 MB

 Integral transformation finished. Total CPU:   0.01 sec, npass=  1  Memory used:   0.11 MW

 Memory needed for MP2:                      0.01 MW

 SCS-MP2 correlation energy:           -0.242737502802   (PS=  1.200000  PT=  0.333333)
 SCS-MP2 total energy:                -56.439686753648


  Reference energy                    -56.196949250847
  MP2 singlet pair energy              -0.161109213989
  MP2 triplet pair energy              -0.079403216810
  MP2 correlation energy               -0.240512430799

 !MP2 total energy                    -56.437461681646

 KEXT needed  1 integral passes. Memory used:   0.16 MW  CPU time:      0.02 sec

 CPHF start vector      0.2 not found

 Starting Coupled-perturbed Hartree-Fock, convergence threshold= 1.0D-06

 ITER   MIC  DIIS      VAR         VARC       CPU
   1     0     1    0.30D-01    0.15D-02     0.01
   2     5     2    0.25D-03    0.11D-03     0.01
   3     3     3    0.25D-04    0.21D-05     0.01
   4     4     4    0.11D-05    0.14D-06     0.01
   5     1     5    0.15D-06    0.40D-08     0.02

 CPHF convergence reached in  5 macroiterations and   13 microiterations.   Accuracy: 1.4781D-07

 CPHF solution written to record  4100.2

 Dipole moments (unrelaxed):            0.00000000     0.67807547    -0.10416789
 Orbital relaxation contribution:      -0.00000000    -0.02204379     0.00493992
 !MP2 STATE 1.1 Dipole moment           0.00000000     0.65603168    -0.09922796
 Dipole moment /Debye                   0.00000000     1.66746622    -0.25221233

 CPU-time for density and lagrangian:                  0.00 sec
 CPU-time for coupled-perturbed hartree-fock:          0.02 sec

 MP2 gradient info saved on record         5200.1


 **********************************************************************************************************************************
 DATASETS  * FILE   NREC   LENGTH (MB)   RECORD NAMES
              1      21       36.99       500      610      700      900      950      970     1000      129      960     1100   
                                          VAR    BASINP    GEOM    SYMINP    ZMAT    AOBASIS   BASIS     P2S    ABASIS      S 
                                         1400     1410     1200     1210     1080     1600     1650     1300     1700     1380   
                                           T        V       H0       H01     AOSYM     SMH    MOLCAS    ERIS     OPER     JKOP   
                                         5200   
                                          MP2  

              2       5        0.51       700     1000      520     2100     4100   
                                         GEOM     BASIS   MCVARS     RHF     CPHF   

 PROGRAMS   *        TOTAL       MP2    HF-SCF       INT
 CPU TIMES  *         0.53      0.09      0.09      0.27
 REAL TIME  *         0.74 SEC
 DISK USED  *        59.05 MB
 **********************************************************************************************************************************


 PROGRAM * OPT (Geometry optimization)     Authors: F. Eckert and H.-J. Werner


 BFGS update of hessian

 *** Long output written to logfile /media/storage_4_240T/ddi/Kemal/NH3/nh3.log ***


 Geometry optimization using default procedure for command MP2

 Geometry written to block  1 of record 700

 Making model hessian for Z-matrix coordinates

 Entering Rational Function Geometry Optimization

 ITER.   ENERGY(OLD)    ENERGY(NEW)      DE          GRADMAX     GRADNORM    GRADRMS     STEPMAX     STEPLEN     STEPRMS   CPU-time
   1   -56.43746168   -56.44944267    -0.01198099  0.14409562  0.15664021  0.09043627  0.09707995  0.10891031  0.03630344      0.61
   2   -56.44944267   -56.45164449    -0.00220182  0.04738200  0.06249895  0.03608379  0.05562846  0.07437382  0.02479127      1.23
   3   -56.45164449   -56.45241705    -0.00077256  0.02525465  0.03335446  0.01925721  0.03490659  0.03777567  0.01259189      1.86
   4   -56.45241705   -56.45275109    -0.00033404  0.01190432  0.01479626  0.00854262  0.03490659  0.03490915  0.01163638      2.47
   5   -56.45275109   -56.45292460    -0.00017351  0.00739418  0.00878112  0.00506978  0.03490659  0.03561530  0.01187177      3.08
   6   -56.45292460   -56.45299148    -0.00006688  0.00388594  0.00475593  0.00274584  0.03490659  0.03532529  0.01177510      3.67
   7   -56.45299148   -56.45299229    -0.00000081  0.00041566  0.00051337  0.00029640  0.00425534  0.00431688  0.00143896      4.27
   8   -56.45299229   -56.45299230    -0.00000000  0.00001603  0.00002150  0.00001241  0.00024665  0.00026771  0.00008924      4.86

 END OF GEOMETRY OPTIMIZATION.

 Optimized variables
 B1=                  1.01141911 ANG
 A1=                105.94447580 DEGREE
 D1=                112.25794494 DEGREE

 **********************************************************************************************************************************

 Geometry written to block  1 of record 700

 Recomputing wavefunction for reoriented structure

 Current geometry (xyz format, in Angstrom)

    4
 MP2/VTZ  ENERGY=-56.45299230
 H         -0.8074678966        0.3223691324       -0.4661789994
 N          0.0000000000       -0.0696037563       -0.0000014849
 H          0.0000000000        0.3223604590        0.9323786299
 H          0.8074678966        0.3223691324       -0.4661789994

 **********************************************************************************************************************************


 **********************************************************************************************************************************
 DATASETS  * FILE   NREC   LENGTH (MB)   RECORD NAMES
              1      22       37.19       500      610      700      900      950      970     1000      129      960     1100   
                                          VAR    BASINP    GEOM    SYMINP    ZMAT    AOBASIS   BASIS     P2S    ABASIS      S 
                                         1400     1410     1200     1210     1080     1600     1650     1300     1700     1380   
                                           T        V       H0       H01     AOSYM     SMH    MOLCAS    ERIS     OPER     JKOP   
                                         5200     5201   
                                          MP2      MP2  

              2       6        0.54       700     1000      520     2100     4100     9001   
                                         GEOM     BASIS   MCVARS     RHF     CPHF    DEN_MP2    

 PROGRAMS   *        TOTAL      OPTG       MP2    HF-SCF       INT
 CPU TIMES  *         5.49      4.96      0.09      0.09      0.27
 REAL TIME  *         6.33 SEC
 DISK USED  *        59.34 MB
 **********************************************************************************************************************************


 PROGRAM * HESSIAN

 Computing numerical hessian using default procedure for command MP2

 Symmetry elements for unique displacements: X  

 Using AUTO symmetry option

 Running default procedure: HF-SCF000  MP2


 Numerically approximating hessian using central gradient differences

 Task list generated. Total number of displacements:     16

    5 tasks completed, CPU=5s Elapsed=5s
   10 tasks completed, CPU=9s Elapsed=9s
   15 tasks completed, CPU=13s Elapsed=13s

 Numerical MP2 hessian completed. CPU-time:    14.28 sec, Elapsed:    14.32 sec

 MP2 hessian saved to record  5300.2

 PROGRAM * FREQUENCIES (Calculation of harmonic vibrational spectra for MP2)


 Permanent Dipole Moment [debye]
   1-  3    0.000000    1.621528    0.000023

 Dipole Moment Norm    1.6215279 [debye]

 Dipole Moment Derivatives [debye/ang]
              1             2             3             4             5             6             7             8
    1     0.5080645     0.5751716    -0.1402616    -1.7671213     0.0000000     0.0000000     0.7509908     0.0000000
    2     0.4006536     0.8864684     0.2313133     0.0000000    -2.6593276     0.0000169     0.0000000     0.8864488
    3    -0.1402681     0.3320814     0.6700403     0.0000000    -0.0000039    -1.7671164     0.0000000    -0.6641618
              9            10            11            12
    1     0.0000000     0.5080645    -0.5751716     0.1402616
    2    -0.4626623    -0.4006536     0.8864684     0.2313133
    3     0.4269592     0.1402681     0.3320814     0.6700403

 Projecting out rotations and translations

 Force Constants (Second Derivatives of the Energy) in [a.u.]
                             H1X1        H1Y1        H1Z1        NX2         NY2     
           H1X1          0.3228254
           H1Y1         -0.1265205   0.0769022
           H1Z1          0.1520608  -0.0730411   0.1472258
           NX2          -0.2959729   0.1579824  -0.1368425   0.6508917
           NY2           0.1065164  -0.0773283   0.0614911  -0.0000000   0.2319876
           NZ2          -0.1368469   0.0912045  -0.1379361  -0.0000000   0.0000142
           H2X3         -0.0002488  -0.0143069  -0.0344632  -0.0589459  -0.0000000
           H2Y3          0.0028491   0.0002139   0.0181627   0.0000000  -0.0773310
           H2Z3          0.0040310  -0.0115507  -0.0178207  -0.0000000  -0.1229964
           H3X4         -0.0266038  -0.0171550   0.0192449  -0.2959729  -0.1065164
           H3Y4          0.0171550   0.0002122  -0.0066127  -0.1579824  -0.0773283
           H3Z4         -0.0192449  -0.0066127   0.0085310   0.1368425   0.0614911
                             NZ2         H2X3        H2Y3        H2Z3        H3X4    
           NZ2           0.6508764
           H2X3         -0.0000000   0.0594434
           H2Y3         -0.1824232   0.0000000   0.0769033
           H2Z3         -0.3750042   0.0000000   0.1460977   0.4106455
           H3X4          0.1368469  -0.0002488  -0.0028491  -0.0040310   0.3228254
           H3Y4          0.0912045   0.0143069   0.0002139  -0.0115507   0.1265205
           H3Z4         -0.1379361   0.0344632   0.0181627  -0.0178207  -0.1520608
                             H3Y4        H3Z4    
           H3Y4          0.0769022
           H3Z4         -0.0730411   0.1472258


 Atomic Masses
   1-  4    1.007825   14.003070    1.007825    1.007825

 Mass weighted Second Derivative Matrix
                             H1X1        H1Y1        H1Z1        NX2         NY2     
           H1X1          0.3203189
           H1Y1         -0.1255382   0.0763051
           H1Z1          0.1508801  -0.0724740   0.1460827
           NX2          -0.0787858   0.0420537  -0.0364264   0.0464821
           NY2           0.0283539  -0.0205842   0.0163685  -0.0000000   0.0165669
           NZ2          -0.0364276   0.0242779  -0.0367176  -0.0000000   0.0000010
           H2X3         -0.0002468  -0.0141958  -0.0341956  -0.0156910  -0.0000000
           H2Y3          0.0028270   0.0002122   0.0180217   0.0000000  -0.0205849
           H2Z3          0.0039997  -0.0114610  -0.0176823  -0.0000000  -0.0327407
           H3X4         -0.0263972  -0.0170218   0.0190955  -0.0787858  -0.0283539
           H3Y4          0.0170218   0.0002106  -0.0065613  -0.0420537  -0.0205842
           H3Z4         -0.0190955  -0.0065613   0.0084647   0.0364264   0.0163685
                             NZ2         H2X3        H2Y3        H2Z3        H3X4    
           NZ2           0.0464810
           H2X3         -0.0000000   0.0589819
           H2Y3         -0.0485597   0.0000000   0.0763062
           H2Z3         -0.0998233   0.0000000   0.1449634   0.4074571
           H3X4          0.0364276  -0.0002468  -0.0028270  -0.0039997   0.3203189
           H3Y4          0.0242779   0.0141958   0.0002122  -0.0114610   0.1255382
           H3Z4         -0.0367176   0.0341956   0.0180217  -0.0176823  -0.1508801
                             H3Y4        H3Z4    
           H3Y4          0.0763051
           H3Z4         -0.0724740   0.1460827


 Mass Weighted 2nd Derivative Matrix Eigenvalues
   1- 10    0.000000    0.000000    0.000000    0.000000    0.000000    0.000000    0.044797    0.107638    0.107653    0.466689
  11- 12    0.505445    0.505466

 Mass Weighted 2nd Derivative Matrix Eigenvectors
              1             2             3             4             5             6             7             8
    1     0.1216555     0.0127923     0.0010286     0.1012293    -0.0191993     0.4227120     0.1695444    -0.3803349
    2    -0.1211252     0.0983972     0.2123568    -0.4128072    -0.3225792     0.4814427     0.4925809    -0.1257433
    3     0.0724680     0.2796434     0.0899709    -0.2449762    -0.3348202    -0.3275302     0.0978539     0.5187526
    4     0.8837383     0.0551512     0.1377222     0.2236805     0.0174814     0.0952846     0.0000000     0.0000000
    5    -0.1134713    -0.1556686     0.8760534    -0.0845950     0.0846769     0.0593403    -0.3964356    -0.0000160
    6    -0.1909213     0.5901551     0.1745015     0.5756731    -0.3200659    -0.1157344     0.0000081    -0.2407617
    7     0.2692188     0.4399183     0.0811750    -0.4139609    -0.0133495    -0.1006429     0.0000000     0.0000000
    8    -0.1220009     0.2562561     0.2424370     0.2198469     0.6229339     0.0024119     0.4925568     0.2515464
    9    -0.0127288     0.0330400     0.0436980     0.0524766    -0.3381917    -0.0253702    -0.1957378    -0.1400630
   10     0.1216555     0.0127923     0.0010286     0.1012293    -0.0191993     0.4227120    -0.1695444     0.3803349
   11     0.1517989    -0.4799315     0.2502773     0.1248826    -0.2321884    -0.4360963     0.4925809    -0.1257433
   12    -0.0979239    -0.2135690    -0.0025751     0.3499250    -0.3415744     0.2767900     0.0978539     0.5187526
              9            10            11            12
    1     0.0795356    -0.4705318     0.5379665     0.3243453
    2    -0.2178138     0.1775858    -0.2552843    -0.1473095
    3    -0.3803621    -0.2716364     0.3245328     0.1630841
    4    -0.2407540     0.0000000    -0.2821656     0.0000000
    5     0.0000000    -0.1428740     0.0000000    -0.0000598
    6     0.0000000     0.0001168     0.0000000    -0.2821575
    7     0.7383423     0.0000000    -0.0241574     0.0000000
    8     0.0000000     0.1773929     0.0000000     0.2948420
    9     0.0000000     0.5428372     0.0000000     0.7255774
   10     0.0795356     0.4705318     0.5379665    -0.3243453
   11     0.2178138     0.1775858     0.2552843    -0.1473095
   12     0.3803621    -0.2716364    -0.3245328     0.1630841

   Low Vibration      Wavenumber
        Nr             [1/cm] 
        1                0.00
        2                0.00
        3                0.00
        4                0.00
        5                0.00
        6                0.00

     Vibration        Wavenumber
        Nr             [1/cm] 
        1             1088.00
        2             1686.50
        3             1686.62
        4             3511.71
        5             3654.61
        6             3654.69

 FREQUENCIES * CALCULATION OF NORMAL MODES FOR MP2


 Atomic Coordinates

  Nr  Atom  Charge       X              Y              Z

   1   H1    1.00   -1.525893179    0.609189371   -0.880950634
   2   N     7.00    0.000000000   -0.131532037   -0.000002806
   3   H2    1.00    0.000000000    0.609172981    1.761940255
   4   H3    1.00    1.525893179    0.609189371   -0.880950634

 Gradient norm at reference geometry: 0.19736D-05

 Normal Modes

                              1 A`        2 A`        3 A``       4 A`        5 A``
 Wavenumbers [cm-1]         1088.00     1686.50     1686.62     3511.71     3654.61
 Intensities [km/mol]        145.75       15.38       15.38        1.36        3.23
 Intensities [relative]      100.00       10.55       10.55        0.93        2.22
           H1X1             0.16888    -0.37886     0.07923    -0.46870     0.53587
           H1Y1             0.49066    -0.12525    -0.21697     0.17690    -0.25429
           H1Z1             0.09747     0.51673    -0.37888    -0.27058     0.32327
           NX2              0.00000     0.00000    -0.06434    -0.00000    -0.07540
           NY2             -0.10594    -0.00000    -0.00000    -0.03818     0.00000
           NZ2              0.00000    -0.06434    -0.00000     0.00003    -0.00000
           H2X3            -0.00000    -0.00000     0.73547    -0.00000    -0.02406
           H2Y3             0.49064     0.25057     0.00000     0.17670     0.00000
           H2Z3            -0.19498    -0.13952    -0.00000     0.54073     0.00000
           H3X4            -0.16888     0.37886     0.07923     0.46870     0.53587
           H3Y4             0.49066    -0.12525     0.21697     0.17690     0.25429
           H3Z4             0.09747     0.51673     0.37888    -0.27058    -0.32327

                              6 A` 
 Wavenumbers [cm-1]         3654.69
 Intensities [km/mol]          3.23
 Intensities [relative]        2.21
           H1X1             0.32308
           H1Y1            -0.14674
           H1Z1             0.16245
           NX2              0.00000
           NY2             -0.00002
           NZ2             -0.07540
           H2X3             0.00000
           H2Y3             0.29370
           H2Z3             0.72276
           H3X4            -0.32308
           H3Y4            -0.14674
           H3Z4             0.16245


 Normal Modes of low/zero frequencies

                                  1           2           3           4           5
 Wavenumbers [cm-1]            0.00        0.00        0.00        0.00        0.00
 Intensities [km/mol]          0.00        0.00        0.00        0.00        0.00
 Intensities [relative]        0.00        0.00        0.00        0.00        0.00
           H1X1             0.12118     0.01274     0.00102     0.10084    -0.01912
           H1Y1            -0.12065     0.09801     0.21153    -0.41120    -0.32132
           H1Z1             0.07219     0.27856     0.08962    -0.24402    -0.33352
           NX2              0.23616     0.01474     0.03680     0.05977     0.00467
           NY2             -0.03032    -0.04160     0.23411    -0.02261     0.02263
           NZ2             -0.05102     0.15771     0.04663     0.15384    -0.08553
           H2X3             0.26817     0.43821     0.08086    -0.41235    -0.01330
           H2Y3            -0.12153     0.25526     0.24149     0.21899     0.62051
           H2Z3            -0.01268     0.03291     0.04353     0.05227    -0.33688
           H3X4             0.12118     0.01274     0.00102     0.10084    -0.01912
           H3Y4             0.15121    -0.47806     0.24930     0.12440    -0.23129
           H3Z4            -0.09754    -0.21274    -0.00257     0.34856    -0.34025

                                  6
 Wavenumbers [cm-1]            0.00
 Intensities [km/mol]          0.00
 Intensities [relative]        0.00
           H1X1             0.42107
           H1Y1             0.47957
           H1Z1            -0.32626
           NX2              0.02546
           NY2              0.01586
           NZ2             -0.03093
           H2X3            -0.10025
           H2Y3             0.00240
           H2Z3            -0.02527
           H3X4             0.42107
           H3Y4            -0.43440
           H3Z4             0.27571


 Frequencies dumped to record   5400.2

 Zero point energy:  0.03481526 [H]     7641.07 [1/CM]       91.41 [KJ/MOL]
 Frequency information read from record  5400.2

 Recomputing wavefunction at initial geometry


 **********************************************************************************************************************************
 DATASETS  * FILE   NREC   LENGTH (MB)   RECORD NAMES
              1      22       37.18       500      610      700      701      900      950      970     1000      129      960   
                                          VAR    BASINP    GEOM     GEOM    SYMINP    ZMAT    AOBASIS   BASIS     P2S    ABASIS    
                                         1100     1400     1410     1200     1210     1080     1600     1650     1300     1700   
                                           S        T        V       H0       H01     AOSYM     SMH    MOLCAS    ERIS     OPER   
                                         1380     5200   
                                         JKOP      MP2  

              2       9        0.56       700     1000      520     2100     4100     9001     5300     5450     5400   
                                         GEOM     BASIS   MCVARS     RHF     CPHF    DEN_MP2   HESS     NMOD     FREQ   

 PROGRAMS   *        TOTAL      FREQ      OPTG       MP2    HF-SCF       INT
 CPU TIMES  *        18.55     13.06      4.96      0.09      0.09      0.27
 REAL TIME  *        21.03 SEC
 DISK USED  *        87.86 MB
 **********************************************************************************************************************************

 Dump information in style MOLDEN to nh3_molden.dat                                                                  

 Molecular orbitals read from record     2100.2  Type=RHF/CANONICAL (state 1.1)
 Occupation numbers read from record     2100.2  Type=RHF/RHF (state 1.1)
 Orbital energies read from record       2100.2  Type=RHF/CANONICAL (state 1.1)
 Redundancy group numbers read from rec  2100.2  Type=RHF/RHF (state 1.1)

 DUMP ORBITAL  1.1 AS ORBITAL    1  occ=    2.0000  eig=  -15.5341  GROUP=   2
 DUMP ORBITAL  2.1 AS ORBITAL    2  occ=    2.0000  eig=   -1.1393  GROUP=   2
 DUMP ORBITAL  1.2 AS ORBITAL    3  occ=    2.0000  eig=   -0.6229  GROUP=   2
 DUMP ORBITAL  3.1 AS ORBITAL    4  occ=    2.0000  eig=   -0.6229  GROUP=   2
 DUMP ORBITAL  4.1 AS ORBITAL    5  occ=    2.0000  eig=   -0.4285  GROUP=   2

 Total charge:      10.000000
 Frequency information read from record  5400.2

 **********************************************************************************************************************************

 MP2/cc-pVTZ energy=    -56.452992296127

       OPTG(MP2)             MP2          HF-SCF
    -56.45299230    -56.43746168    -56.19694925
 **********************************************************************************************************************************
 Molpro calculation terminated
