
 Working directory              : /scratch/koe/tmpdir_670342/molpro.mLrpl6GJSd/
 Global scratch directory       : /scratch/koe/tmpdir_670342/molpro.mLrpl6GJSd/
 Wavefunction directory         : /home/koe/nomodeco_testruns/MOLPRO/hco3ch3/
 Main file repository           : /home/koe/nomodeco_testruns/MOLPRO/hco3ch3/

 id        : liedlgroup

 Nodes     nprocs
 rune03       9
 GA implementation: MPI file
 GA implementation (serial work in mppx): MPI file

 Using customized tuning parameters: mindgm=1; mindgv=20; mindgc=4; mindgr=1; noblas=0; minvec=7
 default implementation of scratch files=sf  


 Variables initialized (1015), CPU time= 0.00 sec
 ***,hco3ch3 CAME vibrational spectrum
 memory,1000,m
 
 orient,mass
 geometry={
 O1
 C1,O1,B1
 O2,C1,B2,O1,A1
 H1,O2,B3,C1,A2,O1,0.0
 O3,C1,B4,O1,A3,H1,180.0
 C2,O3,B5,C1,A4,O1,0.0
 H2,C2,B6,O3,A5,C1,180.0
 H3,C2,B7,O3,A6,C1,D1
 H4,C2,B7,O3,A6,C1,-D1
 }
 
 B1=                  1.20826386 ANG
 B2=                  1.34632938 ANG
 A1=                125.37105052 DEGREE
 B3=                  0.96620055 ANG
 A2=                104.93520844 DEGREE
 B4=                  1.33375801 ANG
 A3=                126.65441654 DEGREE
 B5=                  1.43708653 ANG
 A4=                113.41206325 DEGREE
 B6=                  1.08375252 ANG
 A5=                105.23462880 DEGREE
 B7=                  1.08668081 ANG
 A6=                110.40633463 DEGREE
 D1=                 60.53271261 DEGREE
 
 mass,iso
 basis=vtz
 hf
 optg
 {freq,analytical,symm=auto, print=0}
 Commands initialized (818), CPU time= 0.00 sec, 672 directives.
 Default parameters read. Elapsed time= 0.16 sec

 Checking input...
 Passed
1


                                         ***  PROGRAM SYSTEM MOLPRO  ***
                                       Copyright, TTI GmbH Stuttgart, 2015
                                    Version 2022.1 linked Jan 25 2022 12:44:58


 **********************************************************************************************************************************
 LABEL *   hco3ch3 CAME vibrational spectrum                                             
  64 bit mpp version                                                                     DATE: 26-Sep-22          TIME: 16:00:40  
 **********************************************************************************************************************************

 SHA1:             f3d4322b9bdbeed63a35be676bd653804e8a9433
 **********************************************************************************************************************************

 Memory per process:      1000 MW
 Total memory per node:   9000 MW

 GA preallocation disabled
 GA check disabled

 Variable memory set to 1000.0 MW

 ZCENTRE=MASS

 SETTING B1             =         1.20826386  ANG                             
 SETTING B2             =         1.34632938  ANG                             
 SETTING A1             =       125.37105052  DEGREE                          
 SETTING B3             =         0.96620055  ANG                             
 SETTING A2             =       104.93520844  DEGREE                          
 SETTING B4             =         1.33375801  ANG                             
 SETTING A3             =       126.65441654  DEGREE                          
 SETTING B5             =         1.43708653  ANG                             
 SETTING A4             =       113.41206325  DEGREE                          
 SETTING B6             =         1.08375252  ANG                             
 SETTING A5             =       105.23462880  DEGREE                          
 SETTING B7             =         1.08668081  ANG                             
 SETTING A6             =       110.40633463  DEGREE                          
 SETTING D1             =        60.53271261  DEGREE                          


 Using masses of most abundant isotopes

 **********************************************************************************************************************************
 SETTING BASIS          =    VTZ


 Recomputing integrals since basis changed


 Using spherical harmonics

 Library entry O      S cc-pVTZ              selected for orbital group  1
 Library entry O      P cc-pVTZ              selected for orbital group  1
 Library entry O      D cc-pVTZ              selected for orbital group  1
 Library entry O      F cc-pVTZ              selected for orbital group  1
 Library entry C      S cc-pVTZ              selected for orbital group  2
 Library entry C      P cc-pVTZ              selected for orbital group  2
 Library entry C      D cc-pVTZ              selected for orbital group  2
 Library entry C      F cc-pVTZ              selected for orbital group  2
 Library entry H      S cc-pVTZ              selected for orbital group  4
 Library entry H      P cc-pVTZ              selected for orbital group  4
 Library entry H      D cc-pVTZ              selected for orbital group  4


 PROGRAM * SEWARD (Integral evaluation for generally contracted gaussian basis sets)     Author: Roland Lindh, 1990

 Geometry written to block  1 of record 700

 Orientation using atomic masses  
 Molecule type: Asymmetric top
 Symmetry elements: Y
 Rotational constants:       4.4570786      3.2435983     11.0853145 GHz

 Point group  Cs  



 ATOMIC COORDINATES

 NR  ATOM    CHARGE       X              Y              Z

   1  O1      8.00   -2.464364476    0.000000000    0.789834067
   2  C1      6.00   -0.181392906    0.000000000    0.827832820
   3  O2      8.00    1.256633138    0.000000000    2.926642768
   4  H1      1.00    0.067269896    0.000000000    4.311980072
   5  O3      8.00    1.356718003    0.000000000   -1.168869285
   6  C2      6.00    0.040951674    0.000000000   -3.544534505
   7  H2      1.00    1.508817919    0.000000000   -4.972699078
   8  H3      1.00   -1.134201984    1.675676761   -3.712174303
   9  H4      1.00   -1.134201984   -1.675676761   -3.712174303

 Bond lengths in Bohr (Angstrom)

 1-2  2.283287782  2-3  2.544193802  2-5  2.520437355  3-4  1.825854421  5-6  2.715699959
     ( 1.208263860)     ( 1.346329380)     ( 1.333758010)     ( 0.966200550)     ( 1.437086530)

 6-7  2.047995450  6-8  2.053529116  6-9  2.053529116
     ( 1.083752520)     ( 1.086680810)     ( 1.086680810)

 Bond angles

  1-2-3  125.37105052   1-2-5  126.65441654   2-3-4  104.93520844   2-5-6  113.41206325

  3-2-5  107.97453294   5-6-7  105.23462880   5-6-8  110.40633463   5-6-9  110.40633463

  7-6-8  110.68501313   7-6-9  110.68501313   8-6-9  109.37243054

 NUCLEAR CHARGE:                   40
 NUMBER OF PRIMITIVE AOS:         303
 NUMBER OF SYMMETRY AOS:          274
 NUMBER OF CONTRACTIONS:          206   (  134A'  +   72A"  )
 NUMBER OF INNER CORE ORBITALS:     0   (    0A'  +    0A"  )
 NUMBER OF OUTER CORE ORBITALS:     5   (    5A'  +    0A"  )
 NUMBER OF VALENCE ORBITALS:       24   (   18A'  +    6A"  )


 NUCLEAR REPULSION ENERGY  184.45707529


 Eigenvalues of metric

         1 0.123E-02 0.152E-02 0.178E-02 0.200E-02 0.267E-02 0.284E-02 0.356E-02 0.383E-02
         2 0.186E-02 0.102E-01 0.198E-01 0.282E-01 0.310E-01 0.363E-01 0.390E-01 0.434E-01


 Contracted 2-electron integrals neglected if value below      1.0D-11
 AO integral compression algorithm  1   Integral accuracy      1.0D-11

     417.333 MB (compressed) written to integral file ( 41.4%)

     Node minimum: 43.778 MB, node maximum: 49.545 MB


 NUMBER OF SORTED TWO-ELECTRON INTEGRALS:   12858057.     BUFFER LENGTH:  32768
 NUMBER OF SEGMENTS:   1  SEGMENT LENGTH:   12858057      RECORD LENGTH: 524288

 Memory used in sort:      13.42 MW

 SORT1 READ   126041403. AND WROTE    11159725. INTEGRALS IN     32 RECORDS. CPU TIME:     1.73 SEC, REAL TIME:     1.86 SEC
 SORT2 READ    99446973. AND WROTE   115675821. INTEGRALS IN   1548 RECORDS. CPU TIME:     0.22 SEC, REAL TIME:     0.32 SEC

 Node minimum:    12847681.  Node maximum:    12858057. integrals

 OPERATOR DM      FOR CENTER  0  COORDINATES:    0.000000    0.000000    0.000000


 **********************************************************************************************************************************
 DATASETS  * FILE   NREC   LENGTH (MB)   RECORD NAMES
              1      18       29.51       500      610      700      900      950      970     1000      129      960     1100   
                                          VAR    BASINP    GEOM    SYMINP    ZMAT    AOBASIS   BASIS     P2S    ABASIS      S 
                                         1400     1410     1200     1210     1080     1600     1650     1700   
                                           T        V       H0       H01     AOSYM     SMH    MOLCAS    OPER   

 PROGRAMS   *        TOTAL       INT
 CPU TIMES  *         3.30      3.15
 REAL TIME  *         4.07 SEC
 DISK USED  *        29.92 MB (local),        1.76 GB (total)
 GA USED    *         0.00 MB       (max)       0.00 MB       (current)
 **********************************************************************************************************************************


 Program * Restricted Hartree-Fock

 Orbital guess generated from atomic densities. Full valence occupancy:   23   6

 Initial occupancy:  16   4

 NELEC=   40   SYM=1   MS2= 0   THRE=1.0D-08   THRD=1.0D-06   THRG=1.0D-06  HFMA2=F  DIIS_START=2   DIIS_MAX=10   DIIS_INCORE=F

 Level shifts:    0.00 (CLOSED)    0.00 (OPEN)    0.30 (GAP_MIN)

 ITER           ETOT              DE          GRAD        DDIFF     DIIS  NEXP   TIME(IT)  TIME(TOT)  DIAG
   1     -302.67363884    -302.67363884     0.00D+00     0.78D-01     0     0       0.07      0.13    start
   2     -302.75019038      -0.07655154     0.83D-02     0.12D-01     1     0       0.07      0.20    diag
   3     -302.79244979      -0.04225941     0.55D-02     0.46D-02     2     0       0.07      0.27    diag
   4     -302.79390037      -0.00145058     0.76D-03     0.88D-03     3     0       0.07      0.34    diag
   5     -302.79415081      -0.00025044     0.33D-03     0.37D-03     4     0       0.07      0.41    diag
   6     -302.79418596      -0.00003514     0.92D-04     0.13D-03     5     0       0.08      0.49    diag
   7     -302.79419132      -0.00000536     0.31D-04     0.57D-04     6     0       0.08      0.57    diag
   8     -302.79419195      -0.00000063     0.10D-04     0.21D-04     7     0       0.08      0.65    fixocc
   9     -302.79419202      -0.00000007     0.37D-05     0.70D-05     8     0       0.08      0.73    diag
  10     -302.79419203      -0.00000001     0.13D-05     0.27D-05     9     0       0.07      0.80    diag/orth
  11     -302.79419203      -0.00000000     0.50D-06     0.79D-06     9     0       0.07      0.87    diag
  12     -302.79419203      -0.00000000     0.13D-06     0.20D-06     0     0       0.07      0.94    diag

 Final occupancy:  16   4

 !RHF STATE 1.1 Energy               -302.794192025983
  RHF One-electron energy            -781.143143035404
  RHF Two-electron energy             293.891875716150
  RHF Kinetic energy                  302.299175856350
  RHF Nuclear energy                  184.457075293270
  RHF Virial quotient                  -1.001637504198

 !RHF STATE 1.1 Dipole moment           0.12335441     0.00000000    -0.24729804
 Dipole moment /Debye                   0.31353563     0.00000000    -0.62856892

 Orbital energies:

           1.1          2.1          3.1          4.1          5.1          6.1          7.1          8.1          9.1         10.1
    -20.621502   -20.618096   -20.550964   -11.438260   -11.293193    -1.513095    -1.407249    -1.369989    -0.990262    -0.834486

          11.1         12.1         13.1         14.1         15.1         16.1         17.1         18.1
     -0.751504    -0.718448    -0.632104    -0.614168    -0.545840    -0.479525     0.145177     0.151615

           1.2          2.2          3.2          4.2          5.2          6.2
     -0.702332    -0.610822    -0.508949    -0.478896     0.203779     0.235618


 HOMO      4.2    -0.478896 =     -13.0314eV
 LUMO     17.1     0.145177 =       3.9505eV
 LUMO-HOMO         0.624072 =      16.9819eV

 Orbitals saved in record  2100.2


 **********************************************************************************************************************************
 DATASETS  * FILE   NREC   LENGTH (MB)   RECORD NAMES
              1      18       29.52       500      610      700      900      950      970     1000      129      960     1100   
                                          VAR    BASINP    GEOM    SYMINP    ZMAT    AOBASIS   BASIS     P2S    ABASIS      S 
                                         1400     1410     1200     1210     1080     1600     1650     1700   
                                           T        V       H0       H01     AOSYM     SMH    MOLCAS    OPER   

              2       4        0.83       700     1000      520     2100   
                                         GEOM     BASIS   MCVARS     RHF  

 PROGRAMS   *        TOTAL    HF-SCF       INT
 CPU TIMES  *         4.25      0.95      3.15
 REAL TIME  *         5.15 SEC
 DISK USED  *        32.03 MB (local),        1.78 GB (total)
 GA USED    *         0.00 MB       (max)       0.00 MB       (current)
 **********************************************************************************************************************************


 PROGRAM * OPT (Geometry optimization)     Authors: F. Eckert and H.-J. Werner


 BFGS update of hessian

 *** Long output written to logfile /home/koe/nomodeco_testruns/MOLPRO/hco3ch3/hco3ch3.log ***


 Geometry optimization using default procedure for command HF-SCF

 Geometry written to block  1 of record 700

 Making model hessian for Z-matrix coordinates

 Entering Rational Function Geometry Optimization

 ITER.   ENERGY(OLD)    ENERGY(NEW)      DE          GRADMAX     GRADNORM    GRADRMS     STEPMAX     STEPLEN     STEPRMS   CPU-time
   1  -302.79419203  -302.79841385    -0.00422182  0.05384367  0.07804239  0.02085771  0.04696228  0.09572231  0.00683731      6.65
   2  -302.79841385  -302.79878165    -0.00036780  0.01077842  0.01865269  0.00498514  0.01718782  0.03836844  0.00274060     13.07
   3  -302.79878165  -302.79881428    -0.00003264  0.00503563  0.00637142  0.00170283  0.00595659  0.01101442  0.00078674     19.43
   4  -302.79881428  -302.79881732    -0.00000303  0.00137050  0.00191847  0.00051273  0.00195583  0.00343724  0.00024552     25.90
   5  -302.79881732  -302.79881747    -0.00000015  0.00017807  0.00035801  0.00009568  0.00037453  0.00075095  0.00005364     32.22

 END OF GEOMETRY OPTIMIZATION.

 Optimized variables
 B1=                  1.18369814 ANG
 B2=                  1.31700543 ANG
 A1=                124.41766725 DEGREE
 B3=                  0.94373957 ANG
 A2=                107.97141040 DEGREE
 B4=                  1.30398703 ANG
 A3=                126.12169909 DEGREE
 B5=                  1.41668130 ANG
 A4=                116.75881860 DEGREE
 B6=                  1.07699769 ANG
 A5=                105.68039098 DEGREE
 B7=                  1.07921626 ANG
 A6=                110.46465196 DEGREE
 D1=                 60.60522125 DEGREE

 **********************************************************************************************************************************

 Geometry written to block  1 of record 700

 Recomputing wavefunction for reoriented structure

 Current geometry (xyz format, in Angstrom)

    9
 HF-SCF000/VTZ  ENERGY=-302.79881747
 O         -1.2704086197        0.0000000000        0.4482494552
 C         -0.0867438471        0.0000000000        0.4393617762
 O          0.6657923225        0.0000000000        1.5201913742
 H          0.0954612187        0.0000000000        2.2721001444
 O          0.6740291329        0.0000000000       -0.6196975451
 C          0.0187890422        0.0000000000       -1.8757414597
 H          0.8034994441        0.0000000000       -2.6134091390
 H         -0.5957331034        0.8809337284       -1.9807464121
 H         -0.5957331034       -0.8809337284       -1.9807464121

 **********************************************************************************************************************************


 **********************************************************************************************************************************
 DATASETS  * FILE   NREC   LENGTH (MB)   RECORD NAMES
              1      18       29.52       500      610      700      900      950      970     1000      129      960     1100   
                                          VAR    BASINP    GEOM    SYMINP    ZMAT    AOBASIS   BASIS     P2S    ABASIS      S 
                                         1400     1410     1200     1210     1080     1600     1650     1700   
                                           T        V       H0       H01     AOSYM     SMH    MOLCAS    OPER   

              2       4        0.83       700     1000      520     2100   
                                         GEOM     BASIS   MCVARS     RHF  

 PROGRAMS   *        TOTAL      OPTG    HF-SCF       INT
 CPU TIMES  *        36.64     32.38      0.95      3.15
 REAL TIME  *        39.49 SEC
 DISK USED  *        32.03 MB (local),        1.79 GB (total)
 SF USED    *         0.01 MB
 GA USED    *         0.00 MB       (max)       0.00 MB       (current)
 **********************************************************************************************************************************


 PROGRAM * HESSIAN

 PROGRAM * MCKINLEY (Hessian of the energy)     Author: A. Bernhardsson, R. Lindh

 Orbitals from record         2100.2

 Number of closed-shell orbitals: 20 ( 16  4 )
 Number of occupied orbitals:     20 ( 16  4 )

 Number of electrons= 40     Singlet     Space symmetry=1      Wavefunction type: CLOSED          


 McKinley needed     39.03 seconds of CPU time

 Entering CPHF calculation

 CPHF needed 228 iterations for 27 perturbations.  Total CPU time:   18.34 sec


 HF-SCF hessian saved to record  5300.2

 PROGRAM * FREQUENCIES (Calculation of harmonic vibrational spectra for HF-SCF)


 Permanent Dipole Moment [debye]
   1-  3    0.000000    0.000000    0.000000

 Dipole Moment Norm    0.0000000 [debye]

 Dipole Moment Derivatives [debye/ang]
              1             2             3             4             5             6             7             8
    1     0.0000000     0.0000000     0.0000000     0.0000000     0.0000000     0.0000000     0.0000000     0.0000000
    2     0.0000000     0.0000000     0.0000000     0.0000000     0.0000000     0.0000000     0.0000000     0.0000000
    3     0.0000000     0.0000000     0.0000000     0.0000000     0.0000000     0.0000000     0.0000000     0.0000000
              9            10            11            12            13            14            15            16
    1     0.0000000     0.0000000     0.0000000     0.0000000     0.0000000     0.0000000     0.0000000     0.0000000
    2     0.0000000     0.0000000     0.0000000     0.0000000     0.0000000     0.0000000     0.0000000     0.0000000
    3     0.0000000     0.0000000     0.0000000     0.0000000     0.0000000     0.0000000     0.0000000     0.0000000
             17            18            19            20            21            22            23            24
    1     0.0000000     0.0000000     0.0000000     0.0000000     0.0000000     0.0000000     0.0000000     0.0000000
    2     0.0000000     0.0000000     0.0000000     0.0000000     0.0000000     0.0000000     0.0000000     0.0000000
    3     0.0000000     0.0000000     0.0000000     0.0000000     0.0000000     0.0000000     0.0000000     0.0000000
             25            26            27
    1     0.0000000     0.0000000     0.0000000
    2     0.0000000     0.0000000     0.0000000
    3     0.0000000     0.0000000     0.0000000

 Projecting out rotations and translations

 Force Constants (Second Derivatives of the Energy) in [a.u.]
                             O1X1        O1Y1        O1Z1        C1X2        C1Y2    
           O1X1          0.9936511
           O1Y1         -0.0000000   0.0484274
           O1Z1         -0.0019838   0.0000000   0.1397579
           C1X2         -0.8172572   0.0000000   0.0007157   1.2138908
           C1Y2         -0.0000000  -0.1173730  -0.0000000   0.0000000   0.3001221
           C1Z2          0.0003739   0.0000000  -0.1478662  -0.0060744  -0.0000000
           O2X3         -0.0809844   0.0000000  -0.0759565  -0.2225082   0.0000000
           O2Y3         -0.0000000   0.0383996   0.0000000  -0.0000000  -0.0901141
           O2Z3         -0.0584292   0.0000000  -0.0023181  -0.1187181   0.0000000
           H1X4         -0.0065327   0.0000000   0.0018001   0.0290118  -0.0000000
           H1Y4         -0.0000000  -0.0046715   0.0000000  -0.0000000   0.0013899
           H1Z4          0.0053625   0.0000000   0.0101239   0.0306960  -0.0000000
           O3X5         -0.0838378  -0.0000000   0.0689141  -0.2248469  -0.0000000
           O3Y5          0.0000000   0.0380883  -0.0000000   0.0000000  -0.0925569
           O3Z5          0.0694157  -0.0000000  -0.0056012   0.1026360  -0.0000000
           C2X6         -0.0105145  -0.0000000   0.0046927   0.0322406  -0.0000000
           C2Y6         -0.0000000  -0.0047470  -0.0000000  -0.0000000  -0.0024638
           C2Z6         -0.0229425  -0.0000000   0.0059247   0.0165711   0.0000000
           H2X7          0.0019917   0.0000000   0.0018073  -0.0048861   0.0000000
           H2Y7         -0.0000000   0.0008407   0.0000000  -0.0000000  -0.0000433
           H2Z7          0.0017009   0.0000000   0.0005333  -0.0077941  -0.0000000
           H3X8          0.0017419  -0.0003286   0.0000052  -0.0028224   0.0000721
           H3Y8         -0.0021434   0.0005178  -0.0013137   0.0042198   0.0005196
           H3Z8          0.0032513  -0.0005950  -0.0002771  -0.0090161   0.0030936
           H4X9          0.0017419   0.0003286   0.0000052  -0.0028224  -0.0000721
           H4Y9          0.0021434   0.0005178   0.0013137  -0.0042198   0.0005196
           H4Z9          0.0032513   0.0005950  -0.0002771  -0.0090161  -0.0030936
                             C1Z2        O2X3        O2Y3        O2Z3        H1X4    
           C1Z2          0.8327052
           O2X3         -0.0811027   0.5498957
           O2Y3          0.0000000   0.0000000   0.0459493
           O2Z3         -0.2841660  -0.1046022  -0.0000000   0.7775148
           H1X4         -0.0274491  -0.2703369   0.0000000   0.2955407   0.2498018
           H1Y4         -0.0000000   0.0000000  -0.0141998  -0.0000000   0.0000000
           H1Z4         -0.0506771   0.2302817  -0.0000000  -0.3843939  -0.2613518
           O3X5          0.0948842   0.0264096  -0.0000000  -0.0209189  -0.0029016
           O3Y5         -0.0000000  -0.0000000   0.0164623   0.0000000  -0.0000000
           O3Z5         -0.2876010   0.0284772   0.0000000  -0.1092885  -0.0075709
           C2X6          0.0151369  -0.0039463   0.0000000   0.0095708   0.0011641
           C2Y6         -0.0000000   0.0000000   0.0041071   0.0000000  -0.0000000
           C2Z6         -0.0745964   0.0006781  -0.0000000   0.0087380  -0.0004574
           H2X7         -0.0033757   0.0010275  -0.0000000  -0.0008076  -0.0001922
           H2Y7          0.0000000  -0.0000000   0.0000664  -0.0000000   0.0000000
           H2Z7         -0.0004725   0.0009807   0.0000000  -0.0029994  -0.0003806
           H3X8          0.0038035   0.0002215  -0.0000584  -0.0008177  -0.0000071
           H3Y8         -0.0013053  -0.0007643  -0.0003354   0.0001537   0.0000847
           H3Z8          0.0063371   0.0006219  -0.0008753  -0.0015435  -0.0000654
           H4X9          0.0038035   0.0002215   0.0000584  -0.0008177  -0.0000071
           H4Y9          0.0013053   0.0007643  -0.0003354  -0.0001537  -0.0000847
           H4Z9          0.0063371   0.0006219   0.0008753  -0.0015435  -0.0000654
                             H1Y4        H1Z4        O3X5        O3Y5        O3Z5    
           H1Y4          0.0123763
           H1Z4         -0.0000000   0.4289598
           O3X5         -0.0000000  -0.0058365   0.4402292
           O3Y5          0.0032247  -0.0000000   0.0000000   0.0922488
           O3Z5         -0.0000000  -0.0031371  -0.0539542   0.0000000   0.6943336
           C2X6          0.0000000   0.0010735  -0.1503725   0.0000000  -0.0879218
           C2Y6          0.0019482  -0.0000000  -0.0000000  -0.0759574  -0.0000000
           C2Z6         -0.0000000  -0.0005043  -0.0528552   0.0000000  -0.2021119
           H2X7         -0.0000000  -0.0003119   0.0176544   0.0000000  -0.0237031
           H2Y7          0.0000342   0.0000000  -0.0000000   0.0014385  -0.0000000
           H2Z7         -0.0000000  -0.0001872   0.0244064   0.0000000  -0.0414238
           H3X8         -0.0000909   0.0000432  -0.0111672   0.0128604  -0.0136894
           H3Y8         -0.0000510   0.0000839  -0.0023265   0.0085258   0.0041114
           H3Z8         -0.0002780  -0.0000921  -0.0273199   0.0320883  -0.0225850
           H4X9          0.0000909   0.0000432  -0.0111672  -0.0128604  -0.0136894
           H4Y9         -0.0000510  -0.0000839   0.0023265   0.0085258  -0.0041114
           H4Z9          0.0002780  -0.0000921  -0.0273199  -0.0320883  -0.0225850
                             C2X6        C2Y6        C2Z6        H2X7        H2Y7    
           C2X6          0.6587199
           C2Y6         -0.0000000   0.6625558
           C2Z6         -0.0767828   0.0000000   0.5640044
           H2X7         -0.2283487   0.0000000   0.1565424   0.2368161
           H2Y7         -0.0000000  -0.0644702  -0.0000000  -0.0000000   0.0553756
           H2Z7          0.1386927   0.0000000  -0.1807436  -0.1543065  -0.0000000
           H3X8         -0.1494713   0.1299615  -0.0103768  -0.0120314   0.0222547
           H3Y8          0.1322578  -0.2604863   0.0172831  -0.0018009   0.0033790
           H3Z8         -0.0022311   0.0068953  -0.0603554   0.0120776  -0.0213014
           H4X9         -0.1494713  -0.1299615  -0.0103768  -0.0120314  -0.0222547
           H4Y9         -0.1322578  -0.2604863  -0.0172831   0.0018009   0.0033790
           H4Z9         -0.0022311  -0.0068953  -0.0603554   0.0120776   0.0213014
                             H2Z7        H3X8        H3Y8        H3Z8        H4X9    
           H2Z7          0.2148834
           H3X8         -0.0016498   0.1591090
           H3Y8         -0.0012605  -0.1470991   0.2707462
           H3Z8          0.0052049   0.0203404  -0.0183901   0.0705228
           H4X9         -0.0016498   0.0144269   0.0175718   0.0023413   0.1591090
           H4Y9          0.0012605  -0.0175718  -0.0228156  -0.0006374   0.1470991
           H4Z9          0.0052049   0.0023413   0.0006374   0.0027884   0.0203404
                             H4Y9        H4Z9    
           H4Y9          0.2707462
           H4Z9          0.0183901   0.0705228


 Atomic Masses
   1-  9   15.994910   12.000000   15.994910    1.007825   15.994910   12.000000    1.007825    1.007825    1.007825

 Mass weighted Second Derivative Matrix
                             O1X1        O1Y1        O1Z1        C1X2        C1Y2    
           O1X1          0.0621230
           O1Y1         -0.0000000   0.0030277
           O1Z1         -0.0001240   0.0000000   0.0087376
           C1X2         -0.0589898   0.0000000   0.0000517   0.1011576
           C1Y2         -0.0000000  -0.0084720  -0.0000000   0.0000000   0.0250102
           C1Z2          0.0000270   0.0000000  -0.0106730  -0.0005062  -0.0000000
           O2X3         -0.0050631   0.0000000  -0.0047488  -0.0160607   0.0000000
           O2Y3         -0.0000000   0.0024007   0.0000000  -0.0000000  -0.0065045
           O2Z3         -0.0036530   0.0000000  -0.0001449  -0.0085691   0.0000000
           H1X4         -0.0016271   0.0000000   0.0004483   0.0083424  -0.0000000
           H1Y4         -0.0000000  -0.0011635   0.0000000  -0.0000000   0.0003997
           H1Z4          0.0013356   0.0000000   0.0025215   0.0088267  -0.0000000
           O3X5         -0.0052415  -0.0000000   0.0043085  -0.0162295  -0.0000000
           O3Y5          0.0000000   0.0023813  -0.0000000   0.0000000  -0.0066808
           O3Z5          0.0043399  -0.0000000  -0.0003502   0.0074083  -0.0000000
           C2X6         -0.0007589  -0.0000000   0.0003387   0.0026867  -0.0000000
           C2Y6         -0.0000000  -0.0003426  -0.0000000  -0.0000000  -0.0002053
           C2Z6         -0.0016560  -0.0000000   0.0004276   0.0013809   0.0000000
           H2X7          0.0004961   0.0000000   0.0004501  -0.0014050   0.0000000
           H2Y7         -0.0000000   0.0002094   0.0000000  -0.0000000  -0.0000124
           H2Z7          0.0004236   0.0000000   0.0001328  -0.0022412  -0.0000000
           H3X8          0.0004339  -0.0000818   0.0000013  -0.0008116   0.0000207
           H3Y8         -0.0005338   0.0001290  -0.0003272   0.0012134   0.0001494
           H3Z8          0.0008098  -0.0001482  -0.0000690  -0.0025926   0.0008896
           H4X9          0.0004339   0.0000818   0.0000013  -0.0008116  -0.0000207
           H4Y9          0.0005338   0.0001290   0.0003272  -0.0012134   0.0001494
           H4Z9          0.0008098   0.0001482  -0.0000690  -0.0025926  -0.0008896
                             C1Z2        O2X3        O2Y3        O2Z3        H1X4    
           C1Z2          0.0693921
           O2X3         -0.0058540   0.0343794
           O2Y3          0.0000000   0.0000000   0.0028727
           O2Z3         -0.0205112  -0.0065397  -0.0000000   0.0486101
           H1X4         -0.0078931  -0.0673321   0.0000000   0.0736095   0.2478623
           H1Y4         -0.0000000   0.0000000  -0.0035367  -0.0000000   0.0000000
           H1Z4         -0.0145723   0.0573556  -0.0000000  -0.0957399  -0.2593226
           O3X5          0.0068488   0.0016511  -0.0000000  -0.0013078  -0.0007227
           O3Y5         -0.0000000  -0.0000000   0.0010292   0.0000000  -0.0000000
           O3Z5         -0.0207591   0.0017804   0.0000000  -0.0068327  -0.0018857
           C2X6          0.0012614  -0.0002848   0.0000000   0.0006908   0.0003347
           C2Y6         -0.0000000   0.0000000   0.0002965   0.0000000  -0.0000000
           C2Z6         -0.0062164   0.0000489  -0.0000000   0.0006307  -0.0001315
           H2X7         -0.0009707   0.0002559  -0.0000000  -0.0002012  -0.0001907
           H2Y7          0.0000000  -0.0000000   0.0000166  -0.0000000   0.0000000
           H2Z7         -0.0001359   0.0002443   0.0000000  -0.0007470  -0.0003777
           H3X8          0.0010937   0.0000552  -0.0000145  -0.0002037  -0.0000071
           H3Y8         -0.0003753  -0.0001904  -0.0000835   0.0000383   0.0000841
           H3Z8          0.0018222   0.0001549  -0.0002180  -0.0003844  -0.0000649
           H4X9          0.0010937   0.0000552   0.0000145  -0.0002037  -0.0000071
           H4Y9          0.0003753   0.0001904  -0.0000835  -0.0000383  -0.0000841
           H4Z9          0.0018222   0.0001549   0.0002180  -0.0003844  -0.0000649
                             H1Y4        H1Z4        O3X5        O3Y5        O3Z5    
           H1Y4          0.0122802
           H1Z4         -0.0000000   0.4256292
           O3X5         -0.0000000  -0.0014537   0.0275231
           O3Y5          0.0008032  -0.0000000   0.0000000   0.0057674
           O3Z5         -0.0000000  -0.0007813  -0.0033732   0.0000000   0.0434097
           C2X6          0.0000000   0.0003087  -0.0108539   0.0000000  -0.0063462
           C2Y6          0.0005602  -0.0000000  -0.0000000  -0.0054826  -0.0000000
           C2Z6         -0.0000000  -0.0001450  -0.0038151   0.0000000  -0.0145885
           H2X7         -0.0000000  -0.0003095   0.0043971   0.0000000  -0.0059037
           H2Y7          0.0000340   0.0000000  -0.0000000   0.0003583  -0.0000000
           H2Z7         -0.0000000  -0.0001857   0.0060788   0.0000000  -0.0103173
           H3X8         -0.0000902   0.0000429  -0.0027814   0.0032031  -0.0034096
           H3Y8         -0.0000506   0.0000833  -0.0005795   0.0021235   0.0010240
           H3Z8         -0.0002758  -0.0000914  -0.0068045   0.0079922  -0.0056252
           H4X9          0.0000902   0.0000429  -0.0027814  -0.0032031  -0.0034096
           H4Y9         -0.0000506  -0.0000833   0.0005795   0.0021235  -0.0010240
           H4Z9          0.0002758  -0.0000914  -0.0068045  -0.0079922  -0.0056252
                             C2X6        C2Y6        C2Z6        H2X7        H2Y7    
           C2X6          0.0548933
           C2Y6         -0.0000000   0.0552130
           C2Z6         -0.0063986   0.0000000   0.0470004
           H2X7         -0.0656622   0.0000000   0.0450141   0.2349774
           H2Y7         -0.0000000  -0.0185386  -0.0000000  -0.0000000   0.0549457
           H2Z7          0.0398814   0.0000000  -0.0519732  -0.1531084  -0.0000000
           H3X8         -0.0429808   0.0373707  -0.0029839  -0.0119380   0.0220819
           H3Y8          0.0380310  -0.0749034   0.0049698  -0.0017869   0.0033527
           H3Z8         -0.0006416   0.0019827  -0.0173553   0.0119838  -0.0211360
           H4X9         -0.0429808  -0.0373707  -0.0029839  -0.0119380  -0.0220819
           H4Y9         -0.0380310  -0.0749034  -0.0049698   0.0017869   0.0033527
           H4Z9         -0.0006416  -0.0019827  -0.0173553   0.0119838   0.0211360
                             H2Z7        H3X8        H3Y8        H3Z8        H4X9    
           H2Z7          0.2132150
           H3X8         -0.0016369   0.1578736
           H3Y8         -0.0012507  -0.1459570   0.2686441
           H3Z8          0.0051645   0.0201825  -0.0182473   0.0699752
           H4X9         -0.0016369   0.0143149   0.0174354   0.0023232   0.1578736
           H4Y9          0.0012507  -0.0174354  -0.0226385  -0.0006325   0.1459570
           H4Z9          0.0051645   0.0023232   0.0006325   0.0027667   0.0201825
                             H4Y9        H4Z9    
           H4Y9          0.2686441
           H4Z9          0.0182473   0.0699752


 Mass Weighted 2nd Derivative Matrix Eigenvalues
   1- 10    0.000000    0.000000    0.000000    0.000000    0.000000    0.000000    0.000801    0.001348    0.003813    0.012582
  11- 20    0.013299    0.020485    0.031571    0.038324    0.056182    0.063329    0.067925    0.068961    0.090338    0.098536
  21- 27    0.099430    0.100598    0.148305    0.388413    0.407006    0.412119    0.647648

 Mass Weighted 2nd Derivative Matrix Eigenvectors
              1             2             3             4             5             6             7             8
    1     0.0000000     0.4811342     0.0000000     0.0000000     0.0000000     0.0000000     0.0000000     0.0000000
    2    -0.2358709     0.0000000     0.7317567    -0.2434239     0.4139350    -0.1216103    -0.2587679     0.0427330
    3    -0.4900278     0.1241446    -0.2878910    -0.1383720     0.1487630     0.0014671     0.0000000     0.0000000
    4     0.0021884     0.4159885     0.0001002    -0.0002855     0.0008704    -0.0001075     0.0000000     0.0000000
    5    -0.0808412     0.0000000     0.2354050     0.0362642     0.2204175     0.2621215    -0.0746479     0.1193204
    6    -0.1329859     0.0073421    -0.2360160    -0.1578779     0.2447760    -0.0130434     0.0000000     0.0000000
    7    -0.3047326     0.5858846    -0.0139523     0.0397571    -0.1212026     0.0149661     0.0000000     0.0000000
    8     0.0017882     0.0000000     0.0694599    -0.0699391     0.0670707     0.8301292     0.2429516    -0.3451181
    9     0.0603973    -0.0650614    -0.2626895    -0.2101834     0.3676859    -0.0255654     0.0000000     0.0000000
   10    -0.1301484     0.1655103    -0.0059589     0.0169799    -0.0517645     0.0063919     0.0000000     0.0000000
   11    -0.0160138     0.0000000     0.0886354    -0.1027030     0.0212630     0.2015933     0.0590274    -0.1512116
   12    -0.0255376    -0.0023416    -0.0678027    -0.0474497     0.0761080    -0.0044186     0.0000000     0.0000000
   13     0.3035970     0.3767741     0.0139003    -0.0396089     0.1207509    -0.0149103     0.0000000     0.0000000
   14    -0.0060813     0.0000000    -0.1112324     0.5094772     0.2353894     0.3253608    -0.1965233     0.6394671
   15     0.0627388    -0.0658663    -0.2625823    -0.2104889     0.3686173    -0.0256804     0.0000000     0.0000000
   16     0.5722448     0.2200342     0.0262005    -0.0746581     0.2276014    -0.0281042     0.0000000     0.0000000
   17    -0.0781349     0.0000000     0.0336108     0.5992281     0.3668221    -0.1807450     0.2202759    -0.3253874
   18    -0.1070001    -0.0015903    -0.2348263    -0.1612682     0.2551114    -0.0143196     0.0000000     0.0000000
   19     0.2184772     0.0456719     0.0100031    -0.0285037     0.0868959    -0.0107299     0.0000000     0.0000000
   20     0.0003156     0.0000000    -0.0820412     0.2707014     0.0943142    -0.0253669    -0.4026143    -0.4123307
   21     0.0249873    -0.0197093    -0.0654894    -0.0540415     0.0962035    -0.0068999     0.0000000     0.0000000
   22     0.1466955     0.0611907     0.0937299    -0.0754629     0.0988608    -0.0881607     0.4176418     0.1268836
   23    -0.0413332     0.0000000     0.0674023     0.1439038     0.1292653    -0.1141953     0.3434995    -0.0341335
   24    -0.0757764     0.0146130    -0.0884029     0.0186566     0.0739992    -0.0544638    -0.1242633    -0.2476129
   25     0.1999664     0.0611907    -0.0778578     0.0302356     0.0390185     0.0711354    -0.4176418    -0.1268836
   26    -0.0413332     0.0000000     0.0674023     0.1439038     0.1292653    -0.1141953     0.3434995    -0.0341335
   27    -0.0739449     0.0146130    -0.0517191    -0.1006862     0.0389819     0.0504714     0.1242633     0.2476129
              9            10            11            12            13            14            15            16
    1    -0.2266030     0.2900976     0.0000000    -0.0545969     0.0000000    -0.4300082     0.2081313     0.0000000
    2     0.0000000     0.0000000    -0.0364079     0.0000000    -0.3053639     0.0000000     0.0000000     0.0119051
    3     0.4971306     0.3154177     0.0000000     0.5093098     0.0000000     0.0289948    -0.0108091     0.0000000
    4    -0.2006116     0.2354620     0.0000000    -0.0295826     0.0000000    -0.2443245     0.1011745     0.0000000
    5     0.0000000     0.0000000    -0.1213199     0.0000000     0.8857937     0.0000000     0.0000000    -0.0156720
    6     0.0579130    -0.0035009     0.0000000    -0.2644292     0.0000000     0.1092094     0.1624179     0.0000000
    7     0.1646681    -0.3338644     0.0000000    -0.3548127     0.0000000     0.1529760    -0.2006429     0.0000000
    8     0.0000000     0.0000000    -0.2428416     0.0000000    -0.2440526     0.0000000     0.0000000     0.0004045
    9    -0.1868314     0.4721112     0.0000000    -0.4235041     0.0000000     0.2098466    -0.3627374     0.0000000
   10     0.1167497    -0.2956309     0.0000000    -0.1689592     0.0000000     0.2272222     0.0486401     0.0000000
   11     0.0000000     0.0000000     0.9533787     0.0000000     0.0700263     0.0000000     0.0000000    -0.0079309
   12     0.0095327    -0.0385825     0.0000000    -0.1684859     0.0000000     0.1941169    -0.0232729     0.0000000
   13    -0.3077935     0.0063556     0.0000000     0.4237697     0.0000000     0.5680350     0.1634353     0.0000000
   14     0.0000000     0.0000000     0.1233646     0.0000000    -0.2288404     0.0000000     0.0000000     0.2235173
   15     0.0055622    -0.3053827     0.0000000    -0.0733540     0.0000000    -0.0118768     0.6285285     0.0000000
   16     0.4332609    -0.0925442     0.0000000     0.0882740     0.0000000    -0.0737715    -0.3197689     0.0000000
   17     0.0000000     0.0000000     0.0230455     0.0000000    -0.0214866     0.0000000     0.0000000    -0.4175714
   18    -0.3176254    -0.4378505     0.0000000     0.2262789     0.0000000    -0.3737276    -0.3791743     0.0000000
   19     0.2562131    -0.0095879     0.0000000    -0.0939408     0.0000000    -0.1785303     0.0928691     0.0000000
   20     0.0000000     0.0000000    -0.0006730     0.0000000     0.0259339     0.0000000     0.0000000     0.2626717
   21     0.0452435    -0.1086817     0.0000000    -0.0599752     0.0000000    -0.2754168     0.0917282     0.0000000
   22     0.1485888    -0.0194490    -0.0026845     0.0015851     0.0178846    -0.0551802    -0.0340743     0.3120388
   23     0.0041431     0.0038388     0.0037089    -0.0052233     0.0110317    -0.0073385     0.0274578     0.1503660
   24    -0.2084682    -0.1252871    -0.0114145     0.1552494     0.0404462     0.0449351    -0.1681546     0.4828411
   25     0.1485888    -0.0194490     0.0026845     0.0015851    -0.0178846    -0.0551802    -0.0340743    -0.3120388
   26    -0.0041431    -0.0038388     0.0037089     0.0052233     0.0110317     0.0073385    -0.0274578     0.1503660
   27    -0.2084682    -0.1252871     0.0114145     0.1552494    -0.0404462     0.0449351    -0.1681546    -0.4828411
             17            18            19            20            21            22            23            24
    1    -0.0957456     0.2871691    -0.0772560     0.0000000     0.0816450    -0.0871959    -0.5384082    -0.0053859
    2     0.0000000     0.0000000     0.0000000     0.0029389     0.0000000     0.0000000     0.0000000     0.0000000
    3     0.0441171    -0.0043211    -0.0928154     0.0000000     0.0217641    -0.0470688     0.0067822    -0.0001131
    4    -0.0476269    -0.0029813     0.0096603     0.0000000    -0.0503930     0.0720532     0.8063544     0.0108764
    5     0.0000000     0.0000000     0.0000000    -0.0061783     0.0000000     0.0000000     0.0000000     0.0000000
    6    -0.0210468     0.3067996     0.6616065     0.0000000    -0.2392685     0.3722629    -0.0414218    -0.0077297
    7    -0.0613842    -0.4263591     0.0481286     0.0000000     0.0033684    -0.0154470    -0.1089515    -0.0008271
    8     0.0000000     0.0000000     0.0000000     0.0013038     0.0000000     0.0000000     0.0000000     0.0000000
    9     0.0606107    -0.1733285    -0.1998998     0.0000000     0.0667289    -0.1093617    -0.0378881     0.0012968
   10     0.1759145     0.5426106    -0.3059889     0.0000000     0.0657299    -0.0891917     0.1170321     0.0004267
   11     0.0000000     0.0000000     0.0000000     0.0007107     0.0000000     0.0000000     0.0000000     0.0000000
   12     0.1551672     0.4269704    -0.2729361     0.0000000     0.0607449    -0.0853274     0.0930995     0.0015548
   13     0.3053001    -0.0978802     0.0931513     0.0000000    -0.0718860    -0.0002186    -0.0945241    -0.0003346
   14     0.0000000     0.0000000     0.0000000    -0.0408169     0.0000000     0.0000000     0.0000000     0.0000000
   15    -0.3100622    -0.2289105    -0.1843872     0.0000000     0.1533185    -0.1988224     0.0490321     0.0089806
   16    -0.3083853     0.1597614     0.0686588     0.0000000    -0.1274218    -0.1606165     0.0255974     0.0965609
   17     0.0000000     0.0000000     0.0000000    -0.1945303     0.0000000     0.0000000     0.0000000     0.0000000
   18     0.2707247     0.0530524     0.1910111     0.0000000     0.1399998    -0.2130780     0.0331989     0.1178496
   19     0.2872077    -0.1084039    -0.2274061     0.0000000    -0.3716534     0.1969647    -0.0496798     0.3438725
   20     0.0000000     0.0000000     0.0000000     0.7130405     0.0000000     0.0000000     0.0000000     0.0000000
   21     0.4772507    -0.1559205    -0.2241579     0.0000000    -0.3402667     0.1894087    -0.0509188    -0.3180600
   22     0.0875306    -0.0153770     0.0040430     0.2083198     0.4335995     0.3038034     0.0087072    -0.3444704
   23     0.0772529    -0.0336020    -0.0400522     0.0622622     0.2897668     0.2817296    -0.0163908     0.5071290
   24    -0.3379755     0.0534462    -0.2721437    -0.4227698    -0.1706346     0.3809450    -0.0426107    -0.0519850
   25     0.0875306    -0.0153770     0.0040430    -0.2083198     0.4335995     0.3038034     0.0087072    -0.3444704
   26    -0.0772529     0.0336020     0.0400522     0.0622622    -0.2897668    -0.2817296     0.0163908    -0.5071290
   27    -0.3379755     0.0534462    -0.2721437     0.4227698    -0.1706346     0.3809450    -0.0426107    -0.0519850
             25            26            27
    1     0.0000000     0.0021375     0.0031654
    2     0.0008056     0.0000000     0.0000000
    3     0.0000000     0.0009419     0.0018253
    4     0.0000000    -0.0044407     0.0027634
    5     0.0002704     0.0000000     0.0000000
    6     0.0000000    -0.0032688    -0.0066202
    7     0.0000000     0.0009541     0.1380836
    8    -0.0003653     0.0000000     0.0000000
    9     0.0000000     0.0003506    -0.1969739
   10     0.0000000    -0.0007536    -0.5692786
   11    -0.0003333     0.0000000     0.0000000
   12     0.0000000     0.0000177     0.7861148
   13     0.0000000     0.0018418    -0.0005701
   14     0.0018133     0.0000000     0.0000000
   15     0.0000000    -0.0005100     0.0036806
   16     0.0000000    -0.2759523    -0.0001892
   17    -0.3144274     0.0000000     0.0000000
   18     0.0000000     0.1492631    -0.0003763
   19     0.0000000     0.6188315    -0.0004540
   20    -0.0154972     0.0000000     0.0000000
   21     0.0000000    -0.5683417     0.0006597
   22    -0.3876612     0.1649002     0.0002060
   23     0.5454458    -0.2639069    -0.0001273
   24    -0.0515083     0.0307174     0.0000698
   25     0.3876612     0.1649002     0.0002060
   26     0.5454458     0.2639069     0.0001273
   27     0.0515083     0.0307174     0.0000698

   Low Vibration      Wavenumber
        Nr             [1/cm] 
        1                0.00
        2                0.00
        3                0.00
        4                0.00
        5                0.00
        6                0.00

     Vibration        Wavenumber
        Nr             [1/cm] 
        1              145.45
        2              188.76
        3              317.42
        4              576.60
        5              592.80
        6              735.74
        7              913.37
        8             1006.32
        9             1218.44
       10             1293.62
       11             1339.74
       12             1349.92
       13             1545.04
       14             1613.62
       15             1620.92
       16             1630.42
       17             1979.62
       18             3203.70
       19             3279.48
       20             3300.01
       21             4136.89

 FREQUENCIES * CALCULATION OF NORMAL MODES FOR HF-SCF


 Atomic Coordinates

  Nr  Atom  Charge       X              Y              Z

   1   O1    8.00   -2.400724358    0.000000000    0.847068706
   2   C1    6.00   -0.163922114    0.000000000    0.830273427
   3   O2    8.00    1.258165145    0.000000000    2.872745354
   4   H1    1.00    0.180395559    0.000000000    4.293647001
   5   O3    8.00    1.273730461    0.000000000   -1.171058640
   6   C2    6.00    0.035506144    0.000000000   -3.544637639
   7   H2    1.00    1.518393891    0.000000000   -4.938627524
   8   H3    1.00   -1.125772409    1.664723481   -3.743068241
   9   H4    1.00   -1.125772409   -1.664723481   -3.743068241

 Gradient norm at reference geometry: 0.53675D-03

 ?WARNING: GRADIENT NORM NOT ZERO!

 Normal Modes

                              1 A``       2 A``       3 A`        4 A`        5 A``
 Wavenumbers [cm-1]          145.45      188.76      317.42      576.60      592.80
 Intensities [km/mol]          0.00        0.00        0.00        0.00        0.00
 Intensities [relative]        0.00        0.00        0.00        0.00        0.00
           O1X1             0.00000    -0.00000    -0.05666     0.07254     0.00000
           O1Y1            -0.06470     0.01068    -0.00000     0.00000    -0.00910
           O1Z1             0.00000    -0.00000     0.12430     0.07887     0.00000
           C1X2             0.00000     0.00000    -0.05791     0.06797     0.00000
           C1Y2            -0.02155     0.03444     0.00000     0.00000    -0.03502
           C1Z2             0.00000     0.00000     0.01672    -0.00101    -0.00000
           O2X3             0.00000    -0.00000     0.04117    -0.08348    -0.00000
           O2Y3             0.06075    -0.08629     0.00000    -0.00000    -0.06072
           O2Z3            -0.00000     0.00000    -0.04672     0.11805    -0.00000
           H1X4             0.00000     0.00000     0.11630    -0.29448    -0.00000
           H1Y4             0.05880    -0.15062     0.00000    -0.00000     0.94967
           H1Z4             0.00000     0.00000     0.00950    -0.03843    -0.00000
           O3X5             0.00000    -0.00000    -0.07696     0.00159     0.00000
           O3Y5            -0.04914     0.15989     0.00000     0.00000     0.03085
           O3Z5            -0.00000     0.00000     0.00139    -0.07636    -0.00000
           C2X6            -0.00000    -0.00000     0.12507    -0.02672    -0.00000
           C2Y6             0.06359    -0.09393     0.00000     0.00000     0.00665
           C2Z6             0.00000     0.00000    -0.09169    -0.12640     0.00000
           H2X7            -0.00000    -0.00000     0.25522    -0.00955    -0.00000
           H2Y7            -0.40105    -0.41073    -0.00000    -0.00000    -0.00067
           H2Z7            -0.00000    -0.00000     0.04507    -0.10826     0.00000
           H3X8             0.41602     0.12639     0.14801    -0.01937    -0.00267
           H3Y8             0.34216    -0.03400     0.00413     0.00382     0.00369
           H3Z8            -0.12378    -0.24665    -0.20766    -0.12480    -0.01137
           H4X9            -0.41602    -0.12639     0.14801    -0.01937     0.00267
           H4Y9             0.34216    -0.03400    -0.00413    -0.00382     0.00369
           H4Z9             0.12378     0.24665    -0.20766    -0.12480     0.01137

                              6 A`        7 A``       8 A`        9 A`       10 A``
 Wavenumbers [cm-1]          735.74      913.37     1006.32     1218.44     1293.62
 Intensities [km/mol]          0.00        0.00        0.00        0.00        0.00
 Intensities [relative]        0.00        0.00        0.00        0.00        0.00
           O1X1            -0.01365    -0.00000    -0.10752     0.05204    -0.00000
           O1Y1            -0.00000    -0.07635     0.00000    -0.00000     0.00298
           O1Z1             0.12735    -0.00000     0.00725    -0.00270     0.00000
           C1X2            -0.00854    -0.00000    -0.07053     0.02921    -0.00000
           C1Y2             0.00000     0.25571    -0.00000     0.00000    -0.00452
           C1Z2            -0.07633     0.00000     0.03153     0.04689    -0.00000
           O2X3            -0.08872     0.00000     0.03825    -0.05017    -0.00000
           O2Y3            -0.00000    -0.06102    -0.00000     0.00000     0.00010
           O2Z3            -0.10589     0.00000     0.05247    -0.09070     0.00000
           H1X4            -0.16830     0.00000     0.22634     0.04845     0.00000
           H1Y4            -0.00000     0.06975     0.00000    -0.00000    -0.00790
           H1Z4            -0.16783     0.00000     0.19336    -0.02318     0.00000
           O3X5             0.10596    -0.00000     0.14203     0.04087     0.00000
           O3Y5             0.00000    -0.05722     0.00000     0.00000     0.05589
           O3Z5            -0.01834    -0.00000    -0.00297     0.15716    -0.00000
           C2X6             0.02548    -0.00000    -0.02130    -0.09231    -0.00000
           C2Y6             0.00000    -0.00620    -0.00000    -0.00000    -0.12054
           C2Z6             0.06532    -0.00000    -0.10789    -0.10946     0.00000
           H2X7            -0.09358     0.00000    -0.17784     0.09251     0.00000
           H2Y7            -0.00000     0.02583     0.00000     0.00000     0.26165
           H2Z7            -0.05974     0.00000    -0.27435     0.09137     0.00000
           H3X8             0.00158     0.01782    -0.05497    -0.03394     0.31083
           H3Y8            -0.00520     0.01099    -0.00731     0.02735     0.14978
           H3Z8             0.15465     0.04029     0.04476    -0.16750     0.48096
           H4X9             0.00158    -0.01782    -0.05497    -0.03394    -0.31083
           H4Y9             0.00520     0.01099     0.00731    -0.02735     0.14978
           H4Z9             0.15465    -0.04029     0.04476    -0.16750    -0.48096

                             11 A`       12 A`       13 A`       14 A``      15 A` 
 Wavenumbers [cm-1]         1339.74     1349.92     1545.04     1613.62     1620.92
 Intensities [km/mol]          0.00        0.00        0.00        0.00        0.00
 Intensities [relative]        0.00        0.00        0.00        0.00        0.00
           O1X1            -0.02394     0.07180    -0.01932    -0.00000     0.02041
           O1Y1             0.00000    -0.00000    -0.00000     0.00073    -0.00000
           O1Z1             0.01103    -0.00108    -0.02321     0.00000     0.00544
           C1X2            -0.01375    -0.00086     0.00279    -0.00000    -0.01455
           C1Y2             0.00000    -0.00000     0.00000    -0.00178     0.00000
           C1Z2            -0.00608     0.08857     0.19099    -0.00000    -0.06907
           O2X3            -0.01535    -0.10661     0.01203     0.00000     0.00084
           O2Y3             0.00000     0.00000     0.00000     0.00033    -0.00000
           O2Z3             0.01516    -0.04334    -0.04998     0.00000     0.01668
           H1X4             0.17523     0.54050    -0.30480     0.00000     0.06547
           H1Y4            -0.00000    -0.00000     0.00000     0.00071     0.00000
           H1Z4             0.15456     0.42531    -0.27187     0.00000     0.06051
           O3X5             0.07634    -0.02447     0.02329     0.00000    -0.01797
           O3Y5            -0.00000    -0.00000    -0.00000    -0.01021    -0.00000
           O3Z5            -0.07753    -0.05724    -0.04610     0.00000     0.03834
           C2X6            -0.08902     0.04612     0.01982     0.00000    -0.03678
           C2Y6             0.00000     0.00000    -0.00000    -0.05616    -0.00000
           C2Z6             0.07815     0.01531     0.05514     0.00000     0.04041
           H2X7             0.28609    -0.10798    -0.22652     0.00000    -0.37021
           H2Y7            -0.00000    -0.00000     0.00000     0.71027     0.00000
           H2Z7             0.47539    -0.15531    -0.22329     0.00000    -0.33894
           H3X8             0.08719    -0.01532     0.00403     0.20751     0.43191
           H3Y8             0.07695    -0.03347    -0.03990     0.06202     0.28864
           H3Z8            -0.33666     0.05324    -0.27109    -0.42113    -0.16997
           H4X9             0.08719    -0.01532     0.00403    -0.20751     0.43191
           H4Y9            -0.07695     0.03347     0.03990     0.06202    -0.28864
           H4Z9            -0.33666     0.05324    -0.27109     0.42113    -0.16997

                             16 A`       17 A`       18 A`       19 A``      20 A` 
 Wavenumbers [cm-1]         1630.42     1979.62     3203.70     3279.48     3300.01
 Intensities [km/mol]          0.00        0.00        0.00        0.00        0.00
 Intensities [relative]        0.00        0.00        0.00        0.00        0.00
           O1X1            -0.02180    -0.13462    -0.00135     0.00000     0.00053
           O1Y1            -0.00000    -0.00000     0.00000     0.00020     0.00000
           O1Z1            -0.01177     0.00170    -0.00003    -0.00000     0.00024
           C1X2             0.02080     0.23277     0.00314     0.00000    -0.00128
           C1Y2             0.00000     0.00000     0.00000     0.00008     0.00000
           C1Z2             0.10746    -0.01196    -0.00223     0.00000    -0.00094
           O2X3            -0.00386    -0.02724    -0.00021    -0.00000     0.00024
           O2Y3             0.00000    -0.00000     0.00000    -0.00009     0.00000
           O2Z3            -0.02734    -0.00947     0.00032     0.00000     0.00009
           H1X4            -0.08884     0.11658     0.00043    -0.00000    -0.00075
           H1Y4             0.00000     0.00000    -0.00000    -0.00033    -0.00000
           H1Z4            -0.08500     0.09274     0.00155     0.00000     0.00002
           O3X5            -0.00005    -0.02363    -0.00008     0.00000     0.00046
           O3Y5            -0.00000    -0.00000     0.00000     0.00045     0.00000
           O3Z5            -0.04971     0.01226     0.00225     0.00000    -0.00013
           C2X6            -0.04637     0.00739     0.02787     0.00000    -0.07966
           C2Y6            -0.00000     0.00000    -0.00000    -0.09077    -0.00000
           C2Z6            -0.06151     0.00958     0.03402    -0.00000     0.04309
           H2X7             0.19620    -0.04949     0.34253    -0.00000     0.61642
           H2Y7             0.00000     0.00000    -0.00000    -0.01544    -0.00000
           H2Z7             0.18867    -0.05072    -0.31682     0.00000    -0.56613
           H3X8             0.30262     0.00867    -0.34313    -0.38615     0.16426
           H3Y8             0.28063    -0.01633     0.50516     0.54332    -0.26288
           H3Z8             0.37946    -0.04244    -0.05178    -0.05131     0.03060
           H4X9             0.30262     0.00867    -0.34313     0.38615     0.16426
           H4Y9            -0.28063     0.01633    -0.50516     0.54332     0.26288
           H4Z9             0.37946    -0.04244    -0.05178     0.05131     0.03060

                             21 A` 
 Wavenumbers [cm-1]         4136.89
 Intensities [km/mol]          0.00
 Intensities [relative]        0.00
           O1X1             0.00079
           O1Y1             0.00000
           O1Z1             0.00046
           C1X2             0.00080
           C1Y2            -0.00000
           C1Z2            -0.00191
           O2X3             0.03453
           O2Y3             0.00000
           O2Z3            -0.04925
           H1X4            -0.56706
           H1Y4             0.00000
           H1Z4             0.78306
           O3X5            -0.00014
           O3Y5            -0.00000
           O3Z5             0.00092
           C2X6            -0.00005
           C2Y6             0.00000
           C2Z6            -0.00011
           H2X7            -0.00045
           H2Y7             0.00000
           H2Z7             0.00066
           H3X8             0.00021
           H3Y8            -0.00013
           H3Z8             0.00007
           H4X9             0.00021
           H4Y9             0.00013
           H4Z9             0.00007


 Normal Modes of low/zero frequencies

                                  1           2           3           4           5
 Wavenumbers [cm-1]            0.00        0.00        0.00        0.00        0.00
 Intensities [km/mol]          0.00        0.00        0.00        0.00        0.00
 Intensities [relative]        0.00        0.00        0.00        0.00        0.00
           O1X1            -0.00000     0.12030    -0.00000     0.00000    -0.00000
           O1Y1            -0.05898     0.00000     0.18297    -0.06087     0.10350
           O1Z1            -0.12253     0.03104    -0.07198    -0.03460     0.03720
           C1X2             0.00063     0.12009     0.00003    -0.00008     0.00025
           C1Y2            -0.02334     0.00000     0.06796     0.01047     0.06363
           C1Z2            -0.03839     0.00212    -0.06813    -0.04558     0.07066
           O2X3            -0.07620     0.14649    -0.00349     0.00994    -0.03031
           O2Y3             0.00045     0.00000     0.01737    -0.01749     0.01677
           O2Z3             0.01510    -0.01627    -0.06568    -0.05255     0.09194
           H1X4            -0.12964     0.16487    -0.00594     0.01691    -0.05156
           H1Y4            -0.01595     0.00000     0.08829    -0.10230     0.02118
           H1Z4            -0.02544    -0.00233    -0.06754    -0.04727     0.07581
           O3X5             0.07591     0.09421     0.00348    -0.00990     0.03019
           O3Y5            -0.00152     0.00000    -0.02781     0.12739     0.05886
           O3Z5             0.01569    -0.01647    -0.06566    -0.05263     0.09217
           C2X6             0.16519     0.06352     0.00756    -0.02155     0.06570
           C2Y6            -0.02256    -0.00000     0.00970     0.17298     0.10589
           C2Z6            -0.03089    -0.00046    -0.06779    -0.04655     0.07364
           H2X7             0.21763     0.04549     0.00996    -0.02839     0.08656
           H2Y7             0.00031     0.00000    -0.08172     0.26965     0.09395
           H2Z7             0.02489    -0.01963    -0.06523    -0.05383     0.09583
           H3X8             0.14612     0.06095     0.09337    -0.07517     0.09848
           H3Y8            -0.04117    -0.00000     0.06714     0.14334     0.12876
           H3Z8            -0.07548     0.01456    -0.08806     0.01858     0.07371
           H4X9             0.19919     0.06095    -0.07755     0.03012     0.03887
           H4Y9            -0.04117    -0.00000     0.06714     0.14334     0.12876
           H4Z9            -0.07366     0.01456    -0.05152    -0.10029     0.03883

                                  6
 Wavenumbers [cm-1]            0.00
 Intensities [km/mol]          0.00
 Intensities [relative]        0.00
           O1X1            -0.00000
           O1Y1            -0.03041
           O1Z1             0.00037
           C1X2            -0.00003
           C1Y2             0.07567
           C1Z2            -0.00377
           O2X3             0.00374
           O2Y3             0.20757
           O2Z3            -0.00639
           H1X4             0.00637
           H1Y4             0.20081
           H1Z4            -0.00440
           O3X5            -0.00373
           O3Y5             0.08135
           O3Z5            -0.00642
           C2X6            -0.00811
           C2Y6            -0.05218
           C2Z6            -0.00413
           H2X7            -0.01069
           H2Y7            -0.02527
           H2Z7            -0.00687
           H3X8            -0.08782
           H3Y8            -0.11375
           H3Z8            -0.05425
           H4X9             0.07086
           H4Y9            -0.11375
           H4Z9             0.05028


 Frequencies dumped to record   5400.2

 Zero point energy:  0.07287371 [H]    15993.93 [1/CM]      191.33 [KJ/MOL]
 Frequency information read from record  5400.2


 **********************************************************************************************************************************
 DATASETS  * FILE   NREC   LENGTH (MB)   RECORD NAMES
              1      18       29.52       500      610      700      900      950      970     1000      129      960     1100   
                                          VAR    BASINP    GEOM    SYMINP    ZMAT    AOBASIS   BASIS     P2S    ABASIS      S 
                                         1400     1410     1200     1210     1080     1600     1650     1700   
                                           T        V       H0       H01     AOSYM     SMH    MOLCAS    OPER   

              2       7        1.13       700     1000      520     2100     5300     5450     5400   
                                         GEOM     BASIS   MCVARS     RHF     HESS     NMOD     FREQ   

              4       5        7.60      4100     4000     4200     4300     4400   

 PROGRAMS   *        TOTAL      FREQ      OPTG    HF-SCF       INT
 CPU TIMES  *        94.02     57.38     32.38      0.95      3.15
 REAL TIME  *        98.54 SEC
 DISK USED  *        32.03 MB (local),        1.79 GB (total)
 SF USED    *         7.60 MB
 GA USED    *         0.00 MB       (max)       0.00 MB       (current)
 **********************************************************************************************************************************

 HF/cc-pVTZ//HF/cc-pVTZ energy=   -302.798817468682

    OPTG(HF-SCF)          HF-SCF
   -302.79881747   -302.79419203
 **********************************************************************************************************************************
 Molpro calculation terminated
