
 Working directory              : /scratch/koe/tmpdir_613223/molpro.5OprVI1QLI/
 Global scratch directory       : /scratch/koe/tmpdir_613223/molpro.5OprVI1QLI/
 Wavefunction directory         : /home/koe/bachelorthesis/calc/MAIN/HCOOH/Z_formic_acid/opt_calc_ccsd/
 Main file repository           : /home/koe/bachelorthesis/calc/MAIN/HCOOH/Z_formic_acid/opt_calc_ccsd/

 id        : liedlgroup

 Nodes     nprocs
 rune01      10
 GA implementation: MPI file
 GA implementation (serial work in mppx): MPI file

 Using customized tuning parameters: mindgm=1; mindgv=20; mindgc=4; mindgr=1; noblas=0; minvec=7
 default implementation of scratch files=sf  


 Variables initialized (1015), CPU time= 0.01 sec
 ***,hcooh_trans Vibrational Spectrum
 memory,300,m
 
 orient,mass
 geometry={
 O1
 C,O1,B1
 O2,C,B2,O1,A1
 H1,O2,B3,C,A2,O1,0.0
 H2,C,B4,O1,A3,H1,180
 }
  B1=                  1.20219404 ANG
  B2=                  1.34713670 ANG
  A1=                125.03508568 DEGREE
  B3=                  0.96859307 ANG
  A2=                106.13706564 DEGREE
  B4=                  1.09435427 ANG
  A3=                125.21521371 DEGREE
 
 mass,iso
 basis=vtz
 
 {hf
 start,atden}
 ccsd(t)
 
 {optg, GRADIENT=3.0D-8, ENERGY=1.0D-10, STEP=3.0D.8}
 {frequencies, symm=auto, print=0, step=0.0001}
 put, molden, hcooh.molden
 Commands initialized (818), CPU time= 0.01 sec, 672 directives.
 Default parameters read. Elapsed time= 0.18 sec

 Checking input...
 Passed
1


                                         ***  PROGRAM SYSTEM MOLPRO  ***
                                       Copyright, TTI GmbH Stuttgart, 2015
                                    Version 2022.1 linked Jan 25 2022 12:44:58


 **********************************************************************************************************************************
 LABEL *   hcooh_trans Vibrational Spectrum                                              
  64 bit mpp version                                                                     DATE: 01-Jun-22          TIME: 12:56:29  
 **********************************************************************************************************************************

 SHA1:             f3d4322b9bdbeed63a35be676bd653804e8a9433
 **********************************************************************************************************************************

 Memory per process:       300 MW
 Total memory per node:   3000 MW

 GA preallocation disabled
 GA check disabled

 Variable memory set to 300.0 MW

 ZCENTRE=MASS

 SETTING B1             =         1.20219404  ANG                             
 SETTING B2             =         1.34713670  ANG                             
 SETTING A1             =       125.03508568  DEGREE                          
 SETTING B3             =         0.96859307  ANG                             
 SETTING A2             =       106.13706564  DEGREE                          
 SETTING B4             =         1.09435427  ANG                             
 SETTING A3             =       125.21521371  DEGREE                          


 Using masses of most abundant isotopes

 **********************************************************************************************************************************
 SETTING BASIS          =    VTZ


 Recomputing integrals since basis changed


 Using spherical harmonics

 Library entry O      S cc-pVTZ              selected for orbital group  1
 Library entry O      P cc-pVTZ              selected for orbital group  1
 Library entry O      D cc-pVTZ              selected for orbital group  1
 Library entry O      F cc-pVTZ              selected for orbital group  1
 Library entry C      S cc-pVTZ              selected for orbital group  2
 Library entry C      P cc-pVTZ              selected for orbital group  2
 Library entry C      D cc-pVTZ              selected for orbital group  2
 Library entry C      F cc-pVTZ              selected for orbital group  2
 Library entry H      S cc-pVTZ              selected for orbital group  4
 Library entry H      P cc-pVTZ              selected for orbital group  4
 Library entry H      D cc-pVTZ              selected for orbital group  4


 PROGRAM * SEWARD (Integral evaluation for generally contracted gaussian basis sets)     Author: Roland Lindh, 1990

 Geometry written to block  1 of record 700

 Orientation using atomic masses  
 Molecule type: Asymmetric top
 Symmetry elements: X
 Rotational constants:      10.4141342     12.0242328     77.7728586 GHz

 Point group  Cs  



 ATOMIC COORDINATES

 NR  ATOM    CHARGE       X              Y              Z

   1  O1      8.00    0.000000000    0.406089298   -2.124265627
   2  C       6.00    0.000000000   -0.781807475   -0.187759511
   3  O2      8.00    0.000000000    0.230810393    2.147897227
   4  H1      1.00    0.000000000    2.046341884    1.915259421
   5  H2      1.00    0.000000000   -2.845551613   -0.054689571

 Bond lengths in Bohr (Angstrom)

 1-2  2.271817484  2-3  2.545719415  2-5  2.068029854  3-4  1.830375629
     ( 1.202194040)     ( 1.347136700)     ( 1.094354270)     ( 0.968593070)

 Bond angles

  1-2-3  125.03508568   1-2-5  125.21521371   2-3-4  106.13706564   3-2-5  109.74970061

 NUCLEAR CHARGE:                   24
 NUMBER OF PRIMITIVE AOS:         175
 NUMBER OF SYMMETRY AOS:          158
 NUMBER OF CONTRACTIONS:          118   (   80A'  +   38A"  )
 NUMBER OF INNER CORE ORBITALS:     0   (    0A'  +    0A"  )
 NUMBER OF OUTER CORE ORBITALS:     3   (    3A'  +    0A"  )
 NUMBER OF VALENCE ORBITALS:       14   (   11A'  +    3A"  )


 NUCLEAR REPULSION ENERGY   70.14069903

 Eigenvalues of metric

         1 0.153E-02 0.203E-02 0.260E-02 0.388E-02 0.451E-02 0.582E-02 0.697E-02 0.865E-02
         2 0.288E-01 0.387E-01 0.434E-01 0.766E-01 0.881E-01 0.997E-01 0.128E+00 0.177E+00


 Contracted 2-electron integrals neglected if value below      1.0D-11
 AO integral compression algorithm  1   Integral accuracy      1.0D-11

     62.128 MB (compressed) written to integral file ( 52.7%)

     Node minimum: 5.243 MB, node maximum: 6.816 MB


 NUMBER OF SORTED TWO-ELECTRON INTEGRALS:    1273530.     BUFFER LENGTH:  32768
 NUMBER OF SEGMENTS:   1  SEGMENT LENGTH:    1273530      RECORD LENGTH: 524288

 Memory used in sort:       1.83 MW

 SORT1 READ    14745287. AND WROTE     1243220. INTEGRALS IN      4 RECORDS. CPU TIME:     0.16 SEC, REAL TIME:     0.18 SEC
 SORT2 READ    12488174. AND WROTE    12727851. INTEGRALS IN    200 RECORDS. CPU TIME:     0.04 SEC, REAL TIME:     0.05 SEC

 Node minimum:     1270346.  Node maximum:     1280409. integrals

 OPERATOR DM      FOR CENTER  0  COORDINATES:    0.000000    0.000000    0.000000


 **********************************************************************************************************************************
 DATASETS  * FILE   NREC   LENGTH (MB)   RECORD NAMES
              1      18       28.90       500      610      700      900      950      970     1000      129      960     1100   
                                          VAR    BASINP    GEOM    SYMINP    ZMAT    AOBASIS   BASIS     P2S    ABASIS      S 
                                         1400     1410     1200     1210     1080     1600     1650     1700   
                                           T        V       H0       H01     AOSYM     SMH    MOLCAS    OPER   

 PROGRAMS   *        TOTAL       INT
 CPU TIMES  *         0.63      0.46
 REAL TIME  *         0.97 SEC
 DISK USED  *        29.23 MB (local),      504.73 MB (total)
 GA USED    *         0.00 MB       (max)       0.00 MB       (current)
 **********************************************************************************************************************************


 Program * Restricted Hartree-Fock

 Orbital guess generated from atomic densities. Full valence occupancy:   14   3

 Initial occupancy:  10   2

 NELEC=   24   SYM=1   MS2= 0   THRE=1.0D-08   THRD=1.0D-06   THRG=1.0D-06  HFMA2=F  DIIS_START=2   DIIS_MAX=10   DIIS_INCORE=F

 Level shifts:    0.00 (CLOSED)    0.00 (OPEN)    0.30 (GAP_MIN)

 ITER           ETOT              DE          GRAD        DDIFF     DIIS  NEXP   TIME(IT)  TIME(TOT)  DIAG
   1     -188.75864524    -188.75864524     0.00D+00     0.10D+00     0     0       0.00      0.01    start
   2     -188.80527777      -0.04663253     0.11D-01     0.17D-01     1     0       0.01      0.02    diag
   3     -188.83946973      -0.03419195     0.82D-02     0.69D-02     2     0       0.01      0.03    diag
   4     -188.84038712      -0.00091739     0.98D-03     0.12D-02     3     0       0.00      0.03    diag
   5     -188.84058701      -0.00019989     0.46D-03     0.54D-03     4     0       0.01      0.04    diag
   6     -188.84062543      -0.00003842     0.14D-03     0.23D-03     5     0       0.01      0.05    diag
   7     -188.84063389      -0.00000847     0.59D-04     0.13D-03     6     0       0.01      0.06    diag
   8     -188.84063476      -0.00000086     0.21D-04     0.46D-04     7     0       0.01      0.07    fixocc
   9     -188.84063482      -0.00000007     0.62D-05     0.13D-04     8     0       0.01      0.08    diag
  10     -188.84063483      -0.00000001     0.17D-05     0.41D-05     9     0       0.00      0.08    diag/orth
  11     -188.84063483      -0.00000000     0.40D-06     0.88D-06     9     0       0.01      0.09    diag
  12     -188.84063483      -0.00000000     0.68D-07     0.11D-06     0     0       0.01      0.10    diag

 Final occupancy:  10   2

 !RHF STATE 1.1 Energy               -188.840634830900
  RHF One-electron energy            -398.025518679455
  RHF Two-electron energy             139.044184820067
  RHF Kinetic energy                  188.533317508272
  RHF Nuclear energy                   70.140699028489
  RHF Virial quotient                  -1.001630042513

 !RHF STATE 1.1 Dipole moment           0.00000000    -0.14891190     0.64121605
 Dipole moment /Debye                   0.00000000    -0.37849629     1.62980864

 Orbital energies:

           1.1          2.1          3.1          4.1          5.1          6.1          7.1          8.1          9.1         10.1
    -20.624810   -20.563823   -11.394699    -1.474533    -1.375150    -0.893911    -0.722370    -0.711538    -0.604333    -0.472541

          11.1         12.1
      0.148595     0.169198

           1.2          2.2          3.2          4.2
     -0.635628    -0.495240     0.159668     0.426870


 HOMO     10.1    -0.472541 =     -12.8585eV
 LUMO     11.1     0.148595 =       4.0435eV
 LUMO-HOMO         0.621136 =      16.9020eV

 Orbitals saved in record  2100.2


 **********************************************************************************************************************************
 DATASETS  * FILE   NREC   LENGTH (MB)   RECORD NAMES
              1      18       28.91       500      610      700      900      950      970     1000      129      960     1100   
                                          VAR    BASINP    GEOM    SYMINP    ZMAT    AOBASIS   BASIS     P2S    ABASIS      S 
                                         1400     1410     1200     1210     1080     1600     1650     1700   
                                           T        V       H0       H01     AOSYM     SMH    MOLCAS    OPER   

              2       4        0.53       700     1000      520     2100   
                                         GEOM     BASIS   MCVARS     RHF  

 PROGRAMS   *        TOTAL    HF-SCF       INT
 CPU TIMES  *         0.73      0.10      0.46
 REAL TIME  *         1.10 SEC
 DISK USED  *        30.03 MB (local),      512.81 MB (total)
 GA USED    *         0.00 MB       (max)       0.00 MB       (current)
 **********************************************************************************************************************************


 PROGRAM * CCSD (Closed-shell coupled cluster)     Authors: C. Hampel, H.-J. Werner, 1991, M. Deegan, P.J. Knowles, 1992


 Convergence thresholds:  THRVAR = 1.00D-12  THRDEN = 1.00D-08

 CCSD(T)     terms to be evaluated (factor= 1.000)


 Using ITF CCSD(T) gradient implementation

 Number of core orbitals:           3 (   3   0 )
 Number of closed-shell orbitals:   9 (   7   2 )
 Number of external orbitals:     106 (  70  36 )

 Molecular orbitals read from record     2100.2  Type=RHF/CANONICAL  

 Integral transformation finished. Total CPU:   0.18 sec, npass=  1  Memory used:   2.55 MW
 Time for re-packing tensors:             0.04 sec
  Reference energy                   -188.840634830900

  MP2 correlation energy               -0.630489003205
  MP2 total energy                   -189.471123834104

 ITER.      SQ.NORM     CORR.ENERGY   TOTAL ENERGY   ENERGY CHANGE        DEN1      VAR(S)    VAR(P)  DIIS     TIME
   1      1.15564971    -0.63537670  -189.47601153    -0.00488770     0.01396597  5.28e-03  3.26e-03  1  1     0.14
   2      1.16880482    -0.63505587  -189.47569070     0.00032083    -0.01622622  9.46e-05  6.27e-04  2  2     0.31
   3      1.17224091    -0.63509022  -189.47572505    -0.00003435    -0.00034088  2.71e-05  6.50e-05  3  3     0.46
   4      1.17503352    -0.63505725  -189.47569208     0.00003297    -0.00147202  8.27e-07  1.12e-05  4  4     0.59
   5      1.17604800    -0.63499000  -189.47562483     0.00006725    -0.00032826  6.22e-08  1.06e-06  5  5     0.74
   6      1.17633904    -0.63497526  -189.47561009     0.00001474    -0.00007349  4.36e-09  5.98e-08  6  0     0.91
   7      1.17637454    -0.63497235  -189.47560719     0.00000291    -0.00000835  6.96e-10  5.07e-09  6  1     1.07
   8      1.17637768    -0.63497229  -189.47560712     0.00000006    -0.00000003  2.84e-11  3.73e-10  6  2     1.22
   9      1.17637838    -0.63497226  -189.47560709     0.00000003    -0.00000003  3.10e-12  3.20e-11  6  3     1.38
  10      1.17637832    -0.63497226  -189.47560709     0.00000000     0.00000003  8.00e-14  2.57e-12  6  4     1.55
  11      1.17637837    -0.63497226  -189.47560709    -0.00000000     0.00000002  1.97e-14  2.21e-13           1.70

 Norm of t1 vector:      0.09809785     S-energy:     -0.00000003   T1 diagnostic:  0.01634964

 Time per iteration:                      0.15 sec

 RESULTS
 =======

  Reference energy                   -188.840634830900
  CCSD correlation energy              -0.634972255878
  CCSD total energy                  -189.475607086778

  Triples (T) contribution             -0.026327295432
  Total correlation energy             -0.661299551310
  CCSD[T] total energy               -189.503587794722
 !CCSD(T) total energy               -189.501934382210

 Starting CP-CCSD(T) iterations.   Author: W. Gyorffy (2015)

 ITER.      NRM1           NRM2      VAR(S)+VAR(P)   DIIS    TIME
   1     0.00426795     0.69626497     1.59e-02      1  1    0.19
   2     0.00597735     0.66922683     1.07e-03      2  2    0.39
   3     0.00576058     0.67601976     3.43e-05      3  3    0.57
   4     0.00595866     0.67597042     6.46e-06      4  4    0.78
   5     0.00608918     0.67629085     1.09e-06      5  5    0.97
   6     0.00617324     0.67643507     1.40e-07      6  0    1.18
   7     0.00620730     0.67651433     2.10e-08      6  1    1.38
   8     0.00621738     0.67655020     4.07e-09      6  2    1.57
   9     0.00622247     0.67657048     5.04e-10      6  3    1.78
  10     0.00622280     0.67657377     8.90e-11      6  4    1.99
  11     0.00622287     0.67657496     1.01e-11      6  5    2.18
  12     0.00622283     0.67657474     1.16e-12      6  0    2.38
  13     0.00622278     0.67657465     1.68e-13              2.58


 Time per iteration:                      0.20 sec

 CPHF start vector      0.2 not found

 Starting Coupled-perturbed Hartree-Fock, convergence threshold= 1.0D-06

 ITER   MIC  DIIS      VAR         VARC       CPU
   1     0     1    0.77D-02    0.19D-02     0.01
   2     4     2    0.29D-03    0.96D-04     0.02
   3     5     3    0.80D-05    0.21D-05     0.02
   4     3     4    0.71D-06    0.97D-07     0.03

 CPHF convergence reached in  4 macroiterations and   12 microiterations.   Accuracy: 7.0598D-07

 CPHF solution written to record  8500.2

 Dipole moments (unrelaxed):            0.00000000    -0.05043174     0.53769427
 Orbital relaxation contribution:      -0.00000000    -0.00685889     0.00838183
 !CCSD(T) STATE 1.1 Dipole moment       0.00000000    -0.05729063     0.54607610
 Dipole moment /Debye                   0.00000000    -0.14561825     1.38798700

 CPU-time for coupled-perturbed hartree-fock:          0.03 sec

 Number of N-1 electron functions:               9
 Number of N-2 electron functions:              45
 Number of singly external CSFs:               562
 Number of doubly external CSFs:            235231
 Total number of CSFs:                      235794

 CCSD(T) gradient info saved on record        55555.1




 **********************************************************************************************************************************
 DATASETS  * FILE   NREC   LENGTH (MB)   RECORD NAMES
              1      21      100.44       500      610      700      900      950      970     1000      129      960     1100   
                                          VAR    BASINP    GEOM    SYMINP    ZMAT    AOBASIS   BASIS     P2S    ABASIS      S 
                                         1400     1410     1200     1210     1080     1600     1650     1700     1380     3791   
                                           T        V       H0       H01     AOSYM     SMH    MOLCAS    OPER     JKOP   
                                        55555   
                                        CCSD(T)    

              2       5        0.78       700     1000      520     2100     8500   
                                         GEOM     BASIS   MCVARS     RHF     CPHF   

 PROGRAMS   *        TOTAL   CCSD(T)    HF-SCF       INT
 CPU TIMES  *        14.23     13.50      0.10      0.46
 REAL TIME  *        16.51 SEC
 DISK USED  *       101.33 MB (local),        1.20 GB (total)
 SF USED    *       541.67 MB
 GA USED    *         0.00 MB       (max)       0.00 MB       (current)
 **********************************************************************************************************************************


 PROGRAM * OPT (Geometry optimization)     Authors: F. Eckert and H.-J. Werner


 BFGS update of hessian

 *** Long output written to logfile /home/koe/bachelorthesis/calc/MAIN/HCOOH/Z_formic_acid/opt_calc_ccsd/hcooh.log ***


 Geometry optimization using default procedure for command CCSD(T)

 Geometry written to block  1 of record 700

 Making model hessian for Z-matrix coordinates

 Entering Rational Function Geometry Optimization

 ITER.   ENERGY(OLD)    ENERGY(NEW)      DE          GRADMAX     GRADNORM    GRADRMS     STEPMAX     STEPLEN     STEPRMS   CPU-time
   1  -189.50193438  -189.50193438     0.00000001  0.00000017  0.00000027  0.00000010  0.00000031  0.00000047  0.00000007     17.58
   2  -189.50193438  -189.50193438    -0.00000000  0.00000014  0.00000018  0.00000007  0.00000010  0.00000014  0.00000002     35.69
   3  -189.50193438  -189.50193438     0.00000000  0.00000003  0.00000006  0.00000002  0.00000012  0.00000021  0.00000003     53.92

 END OF GEOMETRY OPTIMIZATION.

 Optimized variables
 B1=                  1.20219402 ANG
 B2=                  1.34713674 ANG
 A1=                125.03509127 DEGREE
 B3=                  0.96859308 ANG
 A2=                106.13706606 DEGREE
 B4=                  1.09435433 ANG
 A3=                125.21521729 DEGREE

 **********************************************************************************************************************************

 Geometry written to block  1 of record 700

 Recomputing wavefunction for reoriented structure

 Current geometry (xyz format, in Angstrom)

    5
 CCSD(T)/VTZ  ENERGY=-189.50193438
 O          0.0000000000        0.2148931889       -1.1241129935
 C          0.0000000000       -0.4137146601       -0.0993580818
 O          0.0000000000        0.1221395847        1.1366183064
 H          0.0000000000        1.0828774928        1.0135117424
 H          0.0000000000       -1.5058010749       -0.0289403869

 **********************************************************************************************************************************


 **********************************************************************************************************************************
 DATASETS  * FILE   NREC   LENGTH (MB)   RECORD NAMES
              1      21      100.44       500      610      700      900      950      970     1000      129      960     1100   
                                          VAR    BASINP    GEOM    SYMINP    ZMAT    AOBASIS   BASIS     P2S    ABASIS      S 
                                         1400     1410     1200     1210     1080     1600     1650     1700     1380     3791   
                                           T        V       H0       H01     AOSYM     SMH    MOLCAS    OPER     JKOP   
                                        55555   
                                        CCSD(T)    

              2       6        0.86       700     1000      520     2100     8500     9001   
                                         GEOM     BASIS   MCVARS     RHF     CPHF    DEN_MP2    

 PROGRAMS   *        TOTAL      OPTG   CCSD(T)    HF-SCF       INT
 CPU TIMES  *        81.77     67.52     13.50      0.10      0.46
 REAL TIME  *        96.11 SEC
 DISK USED  *       153.17 MB (local),        1.74 GB (total)
 SF USED    *       751.46 MB
 GA USED    *         0.00 MB       (max)       0.00 MB       (current)
 **********************************************************************************************************************************


 PROGRAM * HESSIAN

 Computing numerical hessian using default procedure for command CCSD(T)

 Symmetry elements for unique displacements: X  

 Using AUTO symmetry option

 Running default procedure: HF-SCF000  CCSD(T)


 Numerically approximating hessian using central gradient differences

 Task list generated. Total number of displacements:     25

 All  25 tasks completed.  CPU=   1126.55 sec, Elapsed=   1126.60 sec.

 CCSD(T) hessian saved to record  5300.2

 PROGRAM * FREQUENCIES (Calculation of harmonic vibrational spectra for CCSD(T))


 Permanent Dipole Moment [debye]
   1-  3    0.000000   -0.145619    1.387983

 Dipole Moment Norm    1.3956006 [debye]

 Dipole Moment Derivatives [debye/ang]
              1             2             3             4             5             6             7             8
    1    -1.6744519     0.0000000     0.0000000     1.3120614     0.0000000     0.0000000    -1.7495238     0.0000000
    2     0.0000000    -2.8398530     0.0383659     0.0000000     4.5899230     0.4887355     0.0000000    -2.2990694
    3     0.0000000     1.4618433    -4.7094604     0.0000000     0.5502414     8.8397253     0.0000000    -2.4489031
              9            10            11            12            13            14            15
    1     0.0000000     1.6176563     0.0000000     0.0000000     0.5229167     0.0000000     0.0000000
    2    -1.1584235     0.0000000     1.1276487     0.4213686     0.0000000    -0.5718171     0.1708761
    3    -5.5722260     0.0000000     0.3812231     1.3349556     0.0000000     0.0514775     0.1885709

 Projecting out rotations and translations

 Force Constants (Second Derivatives of the Energy) in [a.u.]
                             O1X1        O1Y1        O1Z1        CX2         CY2     
           O1X1          0.0292476
           O1Y1          0.0000000   0.2961313
           O1Z1          0.0000000  -0.3432742   0.6708891
           CX2          -0.0735614   0.0000000   0.0000000   0.1965282
           CY2           0.0000000  -0.3268917   0.3057003   0.0000000   0.8390464
           CZ2           0.0000000   0.2975299  -0.5680847   0.0000000  -0.2014799
           O2X3          0.0289545   0.0000000   0.0000000  -0.0613073   0.0000000
           O2Y3          0.0000000   0.0420453   0.0147262   0.0000000  -0.1740618
           O2Z3          0.0000000  -0.0027622  -0.0978304   0.0000000  -0.0600106
           H1X4         -0.0066161   0.0000000   0.0000000   0.0045411   0.0000000
           H1Y4          0.0000000   0.0037564   0.0081889   0.0000000  -0.0344556
           H1Z4          0.0000000   0.0084462   0.0020795   0.0000000  -0.0572369
           H2X5          0.0219754   0.0000000   0.0000000  -0.0662006   0.0000000
           H2Y5          0.0000000  -0.0150413   0.0146588   0.0000000  -0.3036373
           H2Z5          0.0000000   0.0400603  -0.0070536   0.0000000   0.0130271
                             CZ2         O2X3        O2Y3        O2Z3        H1X4    
           CZ2           0.8699237
           O2X3          0.0000000   0.0401858
           O2Y3         -0.0949251   0.0000000   0.6285132
           O2Z3         -0.2557542   0.0000000   0.0250886   0.4171720
           H1X4          0.0000000  -0.0186539   0.0000000   0.0000000   0.0142128
           H1Y4         -0.0057606   0.0000000  -0.4771038   0.0424838   0.0000000
           H1Z4          0.0059938   0.0000000   0.0922887  -0.0582185   0.0000000
           H2X5          0.0000000   0.0108210   0.0000000   0.0000000   0.0065161
           H2Y5          0.0046357   0.0000000  -0.0193930  -0.0047997   0.0000000
           H2Z5         -0.0520786   0.0000000  -0.0371784  -0.0053689   0.0000000
                             H1Y4        H1Z4        H2X5        H2Y5        H2Z5    
           H1Y4          0.5070371
           H1Z4         -0.0410166   0.0557207
           H2X5          0.0000000   0.0000000   0.0268882
           H2Y5          0.0007659  -0.0024813   0.0000000   0.3373058
           H2Z5         -0.0038955  -0.0055754   0.0000000  -0.0120135   0.0700766


 Atomic Masses
   1-  5   15.994910   12.000000   15.994910    1.007825    1.007825

 Mass weighted Second Derivative Matrix
                             O1X1        O1Y1        O1Z1        CX2         CY2     
           O1X1          0.0018286
           O1Y1          0.0000000   0.0185141
           O1Z1          0.0000000  -0.0214615   0.0419439
           CX2          -0.0053097   0.0000000   0.0000000   0.0163774
           CY2           0.0000000  -0.0235951   0.0220655   0.0000000   0.0699205
           CZ2           0.0000000   0.0214758  -0.0410045   0.0000000  -0.0167900
           O2X3          0.0018102   0.0000000   0.0000000  -0.0044252   0.0000000
           O2Y3          0.0000000   0.0026287   0.0009207   0.0000000  -0.0125638
           O2Z3          0.0000000  -0.0001727  -0.0061163   0.0000000  -0.0043316
           H1X4         -0.0016479   0.0000000   0.0000000   0.0013058   0.0000000
           H1Y4          0.0000000   0.0009356   0.0020396   0.0000000  -0.0099078
           H1Z4          0.0000000   0.0021037   0.0005179   0.0000000  -0.0164586
           H2X5          0.0054734   0.0000000   0.0000000  -0.0190361   0.0000000
           H2Y5          0.0000000  -0.0037463   0.0036510   0.0000000  -0.0873116
           H2Z5          0.0000000   0.0099777  -0.0017568   0.0000000   0.0037460
                             CZ2         O2X3        O2Y3        O2Z3        H1X4    
           CZ2           0.0724936
           O2X3          0.0000000   0.0025124
           O2Y3         -0.0068517   0.0000000   0.0392946
           O2Z3         -0.0184604   0.0000000   0.0015685   0.0260815
           H1X4          0.0000000  -0.0046461   0.0000000   0.0000000   0.0141025
           H1Y4         -0.0016565   0.0000000  -0.1188309   0.0105813   0.0000000
           H1Z4          0.0017235   0.0000000   0.0229861  -0.0145003   0.0000000
           H2X5          0.0000000   0.0026952   0.0000000   0.0000000   0.0064655
           H2Y5          0.0013330   0.0000000  -0.0048302  -0.0011954   0.0000000
           H2Z5         -0.0149753   0.0000000  -0.0092599  -0.0013372   0.0000000
                             H1Y4        H1Z4        H2X5        H2Y5        H2Z5    
           H1Y4          0.5031003
           H1Z4         -0.0406982   0.0552880
           H2X5          0.0000000   0.0000000   0.0266794
           H2Y5          0.0007599  -0.0024621   0.0000000   0.3346868
           H2Z5         -0.0038652  -0.0055321   0.0000000  -0.0119203   0.0695325


 Mass Weighted 2nd Derivative Matrix Eigenvalues
   1- 10    0.000000    0.000000    0.000000    0.000000    0.000000    0.000000    0.015057    0.017821    0.043679    0.049065
  11- 15    0.066637    0.076013    0.126117    0.361624    0.536342

 Mass Weighted 2nd Derivative Matrix Eigenvectors
              1             2             3             4             5             6             7             8
    1     0.8922090    -0.0710703     0.0797012     0.1033225    -0.0741942    -0.3443941     0.0000000    -0.1639299
    2     0.2842421     0.0366035     0.2409602    -0.1586689     0.4277823     0.6448243     0.2495852     0.0000000
    3    -0.0745601    -0.4403860     0.3864368    -0.0062079     0.1118803    -0.0388150     0.5374183     0.0000000
    4     0.0740286     0.1286708    -0.0564259    -0.1053140     0.5928782    -0.4380857     0.0000000     0.2766794
    5     0.1095703     0.1085589     0.1236207     0.2533140     0.2501835     0.3121652    -0.4325348     0.0000000
    6    -0.1483930    -0.3343019     0.2825211     0.2343161     0.0230838    -0.1847416     0.0439171     0.0000000
    7    -0.1626345     0.6010209     0.6263033    -0.1922911    -0.0009271    -0.2431671     0.0000000    -0.3350107
    8    -0.0637540     0.2323515     0.0242354     0.8365648     0.1212615     0.0173505     0.1573283     0.0000000
    9    -0.0888378    -0.4323548     0.3775450     0.0346247     0.0993043    -0.0645591    -0.4468996     0.0000000
   10     0.1079844     0.1764530     0.3103113    -0.0070462    -0.2979373     0.0223458     0.0000000     0.8706257
   11    -0.0112466     0.0556483     0.0090459     0.1963875     0.0346284     0.0129322    -0.0024069     0.0000000
   12     0.0148223    -0.1294092     0.1178887    -0.0974740     0.0576247     0.0507296    -0.4662366     0.0000000
   13    -0.1399579     0.0029123    -0.1950810    -0.0752071     0.5105431    -0.2227774     0.0000000     0.1623398
   14     0.0290329     0.0329911     0.0341311     0.0811924     0.0701072     0.0855602    -0.1261418     0.0000000
   15    -0.0852019    -0.0731455     0.0555957     0.1885852    -0.0304783    -0.1296246    -0.0459144     0.0000000
              9            10            11            12            13            14            15
    1     0.1757818     0.0000000     0.0000000     0.0000000     0.0000000     0.0000000     0.0000000
    2     0.0000000     0.1168465     0.1182087     0.2213346     0.3111405     0.0107738     0.0004911
    3     0.0000000    -0.2230407     0.0985947    -0.1978587    -0.4994934    -0.0130218     0.0027258
    4    -0.5862709     0.0000000     0.0000000     0.0000000     0.0000000     0.0000000     0.0000000
    5     0.0000000    -0.3409554    -0.4655154    -0.0732405    -0.3563144    -0.2900955    -0.0141174
    6     0.0000000    -0.3026026    -0.3703530    -0.0499199     0.6804360     0.0263246    -0.0007731
    7     0.1083002     0.0000000     0.0000000     0.0000000     0.0000000     0.0000000     0.0000000
    8     0.0000000     0.2073063     0.2847542    -0.1468496     0.0284863     0.0052986    -0.2351538
    9     0.0000000     0.6567153     0.0006586     0.0843798    -0.0938320    -0.0017609     0.0220633
   10     0.1166441     0.0000000     0.0000000     0.0000000     0.0000000     0.0000000     0.0000000
   11     0.0000000    -0.0077595     0.1306069    -0.0619906     0.0208884    -0.0182397     0.9669667
   12     0.0000000    -0.4103462     0.6842274    -0.2693226     0.1357884     0.0118031    -0.0932760
   13     0.7746305     0.0000000     0.0000000     0.0000000     0.0000000     0.0000000     0.0000000
   14     0.0000000    -0.1070930    -0.1296134     0.0179824    -0.1443881     0.9552219     0.0165983
   15     0.0000000    -0.2731607     0.1983168     0.8936561    -0.1200257    -0.0437484    -0.0028118

   Low Vibration      Wavenumber
        Nr             [1/cm] 
        1                0.00
        2                0.00
        3                0.00
        4                0.00
        5                0.00
        6                0.00

     Vibration        Wavenumber
        Nr             [1/cm] 
        1              630.78
        2              686.23
        3             1074.34
        4             1138.65
        5             1326.98
        6             1417.26
        7             1825.54
        8             3091.24
        9             3764.66

 FREQUENCIES * CALCULATION OF NORMAL MODES FOR CCSD(T)


 Atomic Coordinates

  Nr  Atom  Charge       X              Y              Z

   1   O1    8.00    0.000000000    0.406089273   -2.124265691
   2   C     6.00    0.000000000   -0.781807401   -0.187759563
   3   O2    8.00    0.000000000    0.230810364    2.147897307
   4   H1    1.00    0.000000000    2.046341888    1.915259617
   5   H2    1.00    0.000000000   -2.845551630   -0.054689405

 Gradient norm at reference geometry: 0.74424D-07

 Normal Modes

                              1 A`        2 A``       3 A``       4 A`        5 A` 
 Wavenumbers [cm-1]          630.78      686.23     1074.34     1138.65     1326.98
 Intensities [km/mol]         45.03      138.04        2.61      245.74        9.17
 Intensities [relative]       14.71       45.11        0.85       80.30        3.00
           O1X1             0.00000    -0.04099     0.04395     0.00000     0.00000
           O1Y1             0.06241     0.00000     0.00000     0.02922     0.02956
           O1Z1             0.13438     0.00000     0.00000    -0.05577     0.02465
           CX2             -0.00000     0.07987    -0.16924    -0.00000    -0.00000
           CY2             -0.12486    -0.00000     0.00000    -0.09843    -0.13438
           CZ2              0.01268     0.00000    -0.00000    -0.08735    -0.10691
           O2X3             0.00000    -0.08377     0.02708    -0.00000    -0.00000
           O2Y3             0.03934     0.00000     0.00000     0.05183     0.07120
           O2Z3            -0.11174    -0.00000    -0.00000     0.16420     0.00016
           H1X4            -0.00000     0.86724     0.11619    -0.00000    -0.00000
           H1Y4            -0.00240     0.00000    -0.00000    -0.00773     0.13010
           H1Z4            -0.46442    -0.00000    -0.00000    -0.40875     0.68157
           H2X5            -0.00000     0.16171     0.77162     0.00000    -0.00000
           H2Y5            -0.12565    -0.00000     0.00000    -0.10668    -0.12911
           H2Z5            -0.04574     0.00000    -0.00000    -0.27210     0.19755

                              6 A`        7 A`        8 A`        9 A` 
 Wavenumbers [cm-1]         1417.26     1825.54     3091.24     3764.66
 Intensities [km/mol]          2.70      306.04       39.12       60.73
 Intensities [relative]        0.88      100.00       12.78       19.84
           O1X1             0.00000    -0.00000     0.00000     0.00000
           O1Y1             0.05534     0.07780     0.00269     0.00012
           O1Z1            -0.04947    -0.12489    -0.00326     0.00068
           CX2             -0.00000     0.00000     0.00000    -0.00000
           CY2             -0.02114    -0.10286    -0.08374    -0.00408
           CZ2             -0.01441     0.19642     0.00760    -0.00022
           O2X3             0.00000     0.00000    -0.00000    -0.00000
           O2Y3            -0.03672     0.00712     0.00132    -0.05880
           O2Z3             0.02110    -0.02346    -0.00044     0.00552
           H1X4            -0.00000    -0.00000    -0.00000    -0.00000
           H1Y4            -0.06175     0.02081    -0.01817     0.96321
           H1Z4            -0.26827     0.13526     0.01176    -0.09291
           H2X5             0.00000     0.00000     0.00000     0.00000
           H2Y5             0.01791    -0.14383     0.95151     0.01653
           H2Z5             0.89018    -0.11956    -0.04358    -0.00280


 Normal Modes of low/zero frequencies

                                  1           2           3           4           5
 Wavenumbers [cm-1]            0.00        0.00        0.00        0.00        0.00
 Intensities [km/mol]          0.00        0.00        0.00        0.00        0.00
 Intensities [relative]        0.00        0.00        0.00        0.00        0.00
           O1X1             0.22309    -0.01777     0.01993     0.02583    -0.01855
           O1Y1             0.07107     0.00915     0.06025    -0.03967     0.10696
           O1Z1            -0.01864    -0.11011     0.09662    -0.00155     0.02797
           CX2              0.02137     0.03714    -0.01629    -0.03040     0.17115
           CY2              0.03163     0.03134     0.03569     0.07313     0.07222
           CZ2             -0.04284    -0.09650     0.08156     0.06764     0.00666
           O2X3            -0.04067     0.15028     0.15660    -0.04808    -0.00023
           O2Y3            -0.01594     0.05810     0.00606     0.20917     0.03032
           O2Z3            -0.02221    -0.10811     0.09440     0.00866     0.02483
           H1X4             0.10756     0.17577     0.30910    -0.00702    -0.29678
           H1Y4            -0.01120     0.05543     0.00901     0.19562     0.03449
           H1Z4             0.01476    -0.12891     0.11743    -0.09709     0.05740
           H2X5            -0.13941     0.00290    -0.19432    -0.07491     0.50856
           H2Y5             0.02892     0.03286     0.03400     0.08088     0.06983
           H2Z5            -0.08487    -0.07286     0.05538     0.18785    -0.03036

                                  6
 Wavenumbers [cm-1]            0.00
 Intensities [km/mol]          0.00
 Intensities [relative]        0.00
           O1X1            -0.08611
           O1Y1             0.16123
           O1Z1            -0.00971
           CX2             -0.12646
           CY2              0.09011
           CZ2             -0.05333
           O2X3            -0.06080
           O2Y3             0.00434
           O2Z3            -0.01614
           H1X4             0.02226
           H1Y4             0.01288
           H1Z4             0.05053
           H2X5            -0.22191
           H2Y5             0.08523
           H2Z5            -0.12912


 Frequencies dumped to record   5400.2

 Zero point energy:  0.03407152 [H]     7477.83 [1/CM]       89.45 [KJ/MOL]
 Frequency information read from record  5400.2

 Recomputing wavefunction at initial geometry


 **********************************************************************************************************************************
 DATASETS  * FILE   NREC   LENGTH (MB)   RECORD NAMES
              1      21      100.44       500      610      700      900      950      970     1000      129      960     1100   
                                          VAR    BASINP    GEOM    SYMINP    ZMAT    AOBASIS   BASIS     P2S    ABASIS      S 
                                         1400     1410     1200     1210     1080     1600     1650     1700     1380     3791   
                                           T        V       H0       H01     AOSYM     SMH    MOLCAS    OPER     JKOP   
                                        55555   
                                        CCSD(T)    

              2       9        0.87       700     1000      520     2100     8500     9001     5300     5450     5400   
                                         GEOM     BASIS   MCVARS     RHF     CPHF    DEN_MP2   HESS     NMOD     FREQ   

 PROGRAMS   *        TOTAL      FREQ      OPTG   CCSD(T)    HF-SCF       INT
 CPU TIMES  *       767.65    685.88     67.52     13.50      0.10      0.46
 REAL TIME  *      1238.27 SEC
 DISK USED  *      1010.76 MB (local),       13.42 GB (total)
 SF USED    *       751.47 MB
 GA USED    *         0.00 MB       (max)       0.00 MB       (current)
 **********************************************************************************************************************************

 Dump information in style MOLDEN to hcooh.molden                                                                    

 Molecular orbitals read from record     2100.2  Type=RHF/CANONICAL (state 1.1)
 Occupation numbers read from record     2100.2  Type=RHF/RHF (state 1.1)
 Orbital energies read from record       2100.2  Type=RHF/CANONICAL (state 1.1)
 Redundancy group numbers read from rec  2100.2  Type=RHF/RHF (state 1.1)

 DUMP ORBITAL  1.1 AS ORBITAL    1  occ=    2.0000  eig=  -20.6248  GROUP=   2
 DUMP ORBITAL  2.1 AS ORBITAL    2  occ=    2.0000  eig=  -20.5638  GROUP=   2
 DUMP ORBITAL  3.1 AS ORBITAL    3  occ=    2.0000  eig=  -11.3947  GROUP=   2
 DUMP ORBITAL  4.1 AS ORBITAL    4  occ=    2.0000  eig=   -1.4745  GROUP=   2
 DUMP ORBITAL  5.1 AS ORBITAL    5  occ=    2.0000  eig=   -1.3752  GROUP=   2
 DUMP ORBITAL  6.1 AS ORBITAL    6  occ=    2.0000  eig=   -0.8939  GROUP=   2
 DUMP ORBITAL  7.1 AS ORBITAL    7  occ=    2.0000  eig=   -0.7224  GROUP=   2
 DUMP ORBITAL  8.1 AS ORBITAL    8  occ=    2.0000  eig=   -0.7115  GROUP=   2
 DUMP ORBITAL  1.2 AS ORBITAL    9  occ=    2.0000  eig=   -0.6356  GROUP=   2
 DUMP ORBITAL  9.1 AS ORBITAL   10  occ=    2.0000  eig=   -0.6043  GROUP=   2
 DUMP ORBITAL  2.2 AS ORBITAL   11  occ=    2.0000  eig=   -0.4952  GROUP=   2
 DUMP ORBITAL 10.1 AS ORBITAL   12  occ=    2.0000  eig=   -0.4725  GROUP=   2

 Total charge:      24.000000
 Frequency information read from record  5400.2

 **********************************************************************************************************************************

 CCSD(T)/cc-pVTZ energy=   -189.501934378368

   OPTG(CCSD(T))         CCSD(T)          HF-SCF
   -189.50193438   -189.50193438   -188.84063483
 **********************************************************************************************************************************
 Molpro calculation terminated
