
 Working directory              : /tmp/koe/molpro.tWz1LLxIgS/
 Global scratch directory       : /tmp/koe/molpro.tWz1LLxIgS/
 Wavefunction directory         : /home/koe/wfu/
 Main file repository           : /tmp/koe/molpro.tWz1LLxIgS/

 id        : liedlgroup

 Nodes     nprocs
 zh2-c724    11
 Distribution of processes:   nprocs(total)=   12   nprocs(compute)=   11   nprocs(helper)=    1
 GA implementation: MPI file
 GA implementation (serial work in mppx): MPI file

 Using customized tuning parameters: mindgm=1; mindgv=20; mindgc=4; mindgr=1; noblas=0; minvec=7
 default implementation of scratch files=sf  


 Variables initialized (1015), CPU time= 0.45 sec
 ***,harmonic spectrum of ammonia, with changes in the default option
 memory,100,m
 angstrom
 
 orient, mass
 geometry = {
 H1
 N, H1, rnh
 H2, N, rnh, H1, hnh
 H3, N, rnh, H2, hnh, H1, dhnh
 }
 
 rnh = 1.008 ANG
 hnh = 107.3 DEGREE
 dhnh = 107.3 DEGREE
 
 mass,iso
 basis = vtz
 
 {hf
 start, atden}
 ccsd(t)
 
 {optg, GRADIENT=3.0D-8, ENERGY=1.0D-10, STEP=3.0D-8}
 {frequencies,symm=auto,print=0, step=0.001}
 put,molden,nh3.molden
 
 Commands initialized (818), CPU time= 0.28 sec, 672 directives.
 Default parameters read. Elapsed time=26.70 sec

 Checking input...
 Passed
1


                                         ***  PROGRAM SYSTEM MOLPRO  ***
                                       Copyright, TTI GmbH Stuttgart, 2015
                                    Version 2022.1 linked Mar  4 2022 00:40:14


 **********************************************************************************************************************************
 LABEL *   harmonic spectrum of ammonia, with changes in the default option              
  (6 PROC) 64 bit mpp version                                                            DATE: 22-Apr-22          TIME: 16:53:07  
 **********************************************************************************************************************************

 SHA1:             31073afc4d8441e10870424e0d77336a33bc4286
 **********************************************************************************************************************************

 Memory per process:       100 MW
 Total memory per node:   1100 MW

 GA preallocation disabled
 GA check disabled

 Variable memory set to 100.0 MW

 ZCENTRE=MASS
 ZUNIT=ANG

 SETTING RNH            =         1.00800000  ANG                             
 SETTING HNH            =       107.30000000  DEGREE                          
 SETTING DHNH           =       107.30000000  DEGREE                          


 Using masses of most abundant isotopes

 **********************************************************************************************************************************
 SETTING BASIS          =    VTZ


 Recomputing integrals since basis changed


 Using spherical harmonics

 Library entry H      S cc-pVTZ              selected for orbital group  1
 Library entry H      P cc-pVTZ              selected for orbital group  1
 Library entry H      D cc-pVTZ              selected for orbital group  1
 Library entry N      S cc-pVTZ              selected for orbital group  2
 Library entry N      P cc-pVTZ              selected for orbital group  2
 Library entry N      D cc-pVTZ              selected for orbital group  2
 Library entry N      F cc-pVTZ              selected for orbital group  2


 PROGRAM * SEWARD (Integral evaluation for generally contracted gaussian basis sets)     Author: Roland Lindh, 1990

 Geometry written to block  1 of record 700

 Orientation using atomic masses  
 Molecule type: Asymmetric top
 Symmetry elements: X
 Rotational constants:     284.9775556    195.7805774    313.0952318 GHz

 Point group  Cs  



 ATOMIC COORDINATES

 NR  ATOM    CHARGE       X              Y              Z

   1  H1      1.00   -1.464777709    0.599526526   -0.958354387
   2  N       7.00    0.000000000   -0.134924616    0.012953080
   3  H2      1.00    0.000000000    0.675636352    1.736734194
   4  H3      1.00    1.464777709    0.599526526   -0.958354387
 Bond lengths in Bohr (Angstrom)

 1-3  1.904843934  2-3  1.904843934  3-4  1.904843934
     ( 1.008000000)     ( 1.008000000)     ( 1.008000000)

 Bond angles

  1-3-2  100.52389999   1-3-4  107.30000000   2-3-4  107.30000000

 NUCLEAR CHARGE:                   10
 NUMBER OF PRIMITIVE AOS:          98
 NUMBER OF SYMMETRY AOS:           90
 NUMBER OF CONTRACTIONS:           72   (   44A'  +   28A"  )
 NUMBER OF INNER CORE ORBITALS:     0   (    0A'  +    0A"  )
 NUMBER OF OUTER CORE ORBITALS:     1   (    1A'  +    0A"  )
 NUMBER OF VALENCE ORBITALS:        7   (    5A'  +    2A"  )


 NUCLEAR REPULSION ENERGY   12.01768671

 Eigenvalues of metric

         1 0.160E-02 0.387E-02 0.400E-02 0.849E-02 0.127E-01 0.318E-01 0.384E-01 0.422E-01
         2 0.392E-02 0.814E-02 0.387E-01 0.420E-01 0.713E-01 0.875E-01 0.138E+00 0.163E+00


 Contracted 2-electron integrals neglected if value below      1.0D-11
 AO integral compression algorithm  1   Integral accuracy      1.0D-11

     11.796 MB (compressed) written to integral file ( 64.9%)

     Node minimum: 0.524 MB, node maximum: 1.835 MB


 NUMBER OF SORTED TWO-ELECTRON INTEGRALS:     159291.     BUFFER LENGTH:  32768
 NUMBER OF SEGMENTS:   1  SEGMENT LENGTH:     159291      RECORD LENGTH: 524288

 Memory used in sort:       0.72 MW

 SORT1 READ     2294234. AND WROTE      151718. INTEGRALS IN      1 RECORDS. CPU TIME:     3.71 SEC, REAL TIME:     7.81 SEC
 SORT2 READ     1699083. AND WROTE     1778986. INTEGRALS IN     44 RECORDS. CPU TIME:     0.29 SEC, REAL TIME:     0.73 SEC

 Node minimum:      159291.  Node maximum:      162541. integrals

 OPERATOR DM      FOR CENTER  0  COORDINATES:    0.000000    0.000000    0.000000


 **********************************************************************************************************************************
 DATASETS  * FILE   NREC   LENGTH (MB)   RECORD NAMES
              1      18       28.69       500      610      700      900      950      970     1000      129      960     1100   
                                          VAR    BASINP    GEOM    SYMINP    ZMAT    AOBASIS   BASIS     P2S    ABASIS      S 
                                         1400     1410     1200     1210     1080     1600     1650     1700   
                                           T        V       H0       H01     AOSYM     SMH    MOLCAS    OPER   

 PROGRAMS   *        TOTAL       INT
 CPU TIMES  *        31.20     21.20
 REAL TIME  *        81.71 SEC
 DISK USED  *        28.98 MB (local),      371.29 MB (total)
 GA USED    *         0.00 MB       (max)       0.00 MB       (current)
 **********************************************************************************************************************************


 Program * Restricted Hartree-Fock

 Orbital guess generated from atomic densities. Full valence occupancy:    6   2

 Initial occupancy:   4   1

 NELEC=   10   SYM=1   MS2= 0   THRE=1.0D-08   THRD=1.0D-06   THRG=1.0D-06  HFMA2=F  DIIS_START=2   DIIS_MAX=10   DIIS_INCORE=F

 Level shifts:    0.00 (CLOSED)    0.00 (OPEN)    0.30 (GAP_MIN)

 ITER           ETOT              DE          GRAD        DDIFF     DIIS  NEXP   TIME(IT)  TIME(TOT)  DIAG
   1      -56.19071421     -56.19071421     0.00D+00     0.12D+00     0     0       0.12      0.50    start
   2      -56.21195399      -0.02123978     0.12D-01     0.16D-01     1     0       0.24      0.74    diag
   3      -56.21672147      -0.00476748     0.58D-02     0.52D-02     2     0       0.35      1.09    diag
   4      -56.21694511      -0.00022365     0.89D-03     0.10D-02     3     0       0.47      1.56    diag
   5      -56.21695975      -0.00001464     0.21D-03     0.27D-03     4     0       0.33      1.89    diag
   6      -56.21696039      -0.00000064     0.36D-04     0.67D-04     5     0       0.29      2.18    diag
   7      -56.21696042      -0.00000003     0.70D-05     0.17D-04     6     0       0.31      2.49    diag
   8      -56.21696042      -0.00000000     0.16D-05     0.36D-05     7     0       0.26      2.75    fixocc
   9      -56.21696042      -0.00000000     0.22D-06     0.59D-06     8     0       0.28      3.03    diag
  10      -56.21696042      -0.00000000     0.61D-07     0.11D-06     0     0       0.34      3.37    diag/orth

 Final occupancy:   4   1

 !RHF STATE 1.1 Energy                -56.216960421670
  RHF One-electron energy             -99.761238087414
  RHF Two-electron energy              31.526590956996
  RHF Kinetic energy                   56.187981323736
  RHF Nuclear energy                   12.017686708748
  RHF Virial quotient                  -1.000515752609

 !RHF STATE 1.1 Dipole moment           0.00000000     0.68039139    -0.04484311
 Dipole moment /Debye                   0.00000000     1.72938242    -0.11397983

 Orbital energies:

           1.1          2.1          3.1          4.1          5.1          6.1
    -15.533663    -1.143032    -0.633263    -0.431351     0.136822     0.215552

           1.2          2.2          3.2
     -0.612720     0.219174     0.470937


 HOMO      4.1    -0.431351 =     -11.7377eV
 LUMO      5.1     0.136822 =       3.7231eV
 LUMO-HOMO         0.568173 =      15.4608eV

 Orbitals saved in record  2100.2


 **********************************************************************************************************************************
 DATASETS  * FILE   NREC   LENGTH (MB)   RECORD NAMES
              1      18       28.69       500      610      700      900      950      970     1000      129      960     1100   
                                          VAR    BASINP    GEOM    SYMINP    ZMAT    AOBASIS   BASIS     P2S    ABASIS      S 
                                         1400     1410     1200     1210     1080     1600     1650     1700   
                                           T        V       H0       H01     AOSYM     SMH    MOLCAS    OPER   

              2       4        0.42       700     1000      520     2100   
                                         GEOM     BASIS   MCVARS     RHF  

 PROGRAMS   *        TOTAL    HF-SCF       INT
 CPU TIMES  *        35.26      3.71     21.20
 REAL TIME  *        89.78 SEC
 DISK USED  *        29.34 MB (local),      375.20 MB (total)
 GA USED    *         0.00 MB       (max)       0.00 MB       (current)
 **********************************************************************************************************************************


 PROGRAM * CCSD (Closed-shell coupled cluster)     Authors: C. Hampel, H.-J. Werner, 1991, M. Deegan, P.J. Knowles, 1992


 Convergence thresholds:  THRVAR = 1.00D-12  THRDEN = 1.00D-08

 CCSD(T)     terms to be evaluated (factor= 1.000)


 Using ITF CCSD(T) gradient implementation

 Number of core orbitals:           1 (   1   0 )
 Number of closed-shell orbitals:   4 (   3   1 )
 Number of external orbitals:      67 (  40  27 )

 Molecular orbitals read from record     2100.2  Type=RHF/CANONICAL  

 Integral transformation finished. Total CPU:  20.74 sec, npass=  1  Memory used:   0.40 MW
 Time for re-packing tensors:             0.00 sec
  Reference energy                    -56.216960421670

  MP2 correlation energy               -0.235185138988
  MP2 total energy                    -56.452145560658

 ITER.      SQ.NORM     CORR.ENERGY   TOTAL ENERGY   ENERGY CHANGE        DEN1      VAR(S)    VAR(P)  DIIS     TIME
   1      1.06898823    -0.24690006   -56.46386048    -0.01171492    -0.00662150  4.17e-04  8.88e-04  1  1     9.31
   2      1.07259440    -0.24756280   -56.46452322    -0.00066273    -0.00441933  1.41e-05  1.18e-04  2  2    18.66
   3      1.07373077    -0.24771977   -56.46468019    -0.00015697    -0.00086857  2.21e-06  1.63e-05  3  3    28.85
   4      1.07428801    -0.24771361   -56.46467403     0.00000616    -0.00047497  6.95e-08  1.60e-06  4  4    39.72
   5      1.07445381    -0.24770759   -56.46466801     0.00000602    -0.00011003  1.31e-08  9.90e-08  5  5    51.54
   6      1.07448690    -0.24770476   -56.46466518     0.00000283    -0.00002221  2.04e-10  4.12e-09  6  0    64.01
   7      1.07448962    -0.24770414   -56.46466456     0.00000062    -0.00000210  7.84e-12  2.44e-10  6  1    75.43
   8      1.07448993    -0.24770407   -56.46466450     0.00000006    -0.00000017  6.09e-13  1.78e-11  6  2    87.53
   9      1.07449006    -0.24770407   -56.46466449     0.00000000    -0.00000005  1.73e-14  8.68e-13          96.31

 Norm of t1 vector:      0.02443808     S-energy:      0.00000000   T1 diagnostic:  0.00610952

 Time per iteration:                     10.74 sec

 RESULTS
 =======

  Reference energy                    -56.216960421670
  CCSD correlation energy              -0.247704072509
  CCSD total energy                   -56.464664494179

  Triples (T) contribution             -0.007639940885
  Total correlation energy             -0.255344013394
  CCSD[T] total energy                -56.472480542957
 !CCSD(T) total energy                -56.472304435064

 Starting CP-CCSD(T) iterations.   Author: W. Gyorffy (2015)

 ITER.      NRM1           NRM2      VAR(S)+VAR(P)   DIIS    TIME
   1     0.00031300     0.25716929     1.87e-03      1  1   10.62
   2     0.00034379     0.25732900     2.31e-05      2  2   23.50
   3     0.00035204     0.25772688     2.10e-06      3  3   35.18
   4     0.00035995     0.25780173     2.62e-07      4  4   43.65
   5     0.00036545     0.25780634     5.56e-08      5  5   45.59
   6     0.00036864     0.25780242     1.19e-08      6  0   47.51
   7     0.00037073     0.25780402     1.37e-09      6  1   49.63
   8     0.00037143     0.25780650     9.24e-11      6  2   51.50
   9     0.00037164     0.25780743     1.97e-12      6  3   53.34
  10     0.00037165     0.25780756     1.59e-13             55.48


 Time per iteration:                      5.55 sec

 CPHF start vector      0.2 not found

 Starting Coupled-perturbed Hartree-Fock, convergence threshold= 1.0D-06

 ITER   MIC  DIIS      VAR         VARC       CPU
   1     0     1    0.14D-02    0.91D-03     0.03
   2     3     2    0.14D-03    0.10D-04     0.19
   3     4     3    0.12D-05    0.51D-06     0.19
   4     1     4    0.24D-06    0.18D-07     0.20

 CPHF convergence reached in  4 macroiterations and    8 microiterations.   Accuracy: 2.4056D-07

 CPHF solution written to record  8500.2

 Dipole moments (unrelaxed):            0.00000000     0.64431579    -0.04140891
 Orbital relaxation contribution:      -0.00000000     0.00167444    -0.00021327
 !CCSD(T) STATE 1.1 Dipole moment       0.00000000     0.64599022    -0.04162219
 Dipole moment /Debye                   0.00000000     1.64194337    -0.10579305

 CPU-time for coupled-perturbed hartree-fock:          0.28 sec

 Number of N-1 electron functions:               4
 Number of N-2 electron functions:              10
 Number of singly external CSFs:               147
 Number of doubly external CSFs:             18259
 Total number of CSFs:                       18407

 CCSD(T) gradient info saved on record        55555.1




 **********************************************************************************************************************************
 DATASETS  * FILE   NREC   LENGTH (MB)   RECORD NAMES
              1      21       35.82       500      610      700      900      950      970     1000      129      960     1100   
                                          VAR    BASINP    GEOM    SYMINP    ZMAT    AOBASIS   BASIS     P2S    ABASIS      S 
                                         1400     1410     1200     1210     1080     1600     1650     1700     1380     3791   
                                           T        V       H0       H01     AOSYM     SMH    MOLCAS    OPER     JKOP   
                                        55555   
                                        CCSD(T)    

              2       5        0.51       700     1000      520     2100     8500   
                                         GEOM     BASIS   MCVARS     RHF     CPHF   

 PROGRAMS   *        TOTAL   CCSD(T)    HF-SCF       INT
 CPU TIMES  *       280.75    245.25      3.71     21.20
 REAL TIME  *       546.60 SEC
 DISK USED  *        36.39 MB (local),      452.73 MB (total)
 SF USED    *        52.57 MB
 GA USED    *         0.00 MB       (max)       0.00 MB       (current)
 **********************************************************************************************************************************


 PROGRAM * OPT (Geometry optimization)     Authors: F. Eckert and H.-J. Werner


 BFGS update of hessian

 *** Long output written to logfile /home/koe/bachelorthesis/calc/NH3/opt_calc_new_ccsd/nh3_ccsd_opt.log ***


 Geometry optimization using default procedure for command CCSD(T)

 Geometry written to block  1 of record 700

 Making model hessian for Z-matrix coordinates

 Entering Rational Function Geometry Optimization

 ITER.   ENERGY(OLD)    ENERGY(NEW)      DE          GRADMAX     GRADNORM    GRADRMS     STEPMAX     STEPLEN     STEPRMS   CPU-time
   1   -56.47230444   -56.47304965    -0.00074521  0.01950732  0.02983663  0.01722619  0.03490659  0.04263358  0.01421119    536.11
   2   -56.47304965   -56.47319270    -0.00014306  0.00722908  0.01021777  0.00589923  0.03146890  0.03317048  0.01105683   1063.69
   3   -56.47319270   -56.47319641    -0.00000370  0.00140092  0.00155461  0.00089755  0.00618743  0.00643960  0.00214653   1584.11
   4   -56.47319641   -56.47319724    -0.00000083  0.00076276  0.00081194  0.00046877  0.00361997  0.00409035  0.00136345   2099.85
   5   -56.47319724   -56.47319724    -0.00000000  0.00004718  0.00006628  0.00003827  0.00012894  0.00014451  0.00004817   2616.44
   6   -56.47319724   -56.47319724    -0.00000000  0.00000405  0.00000508  0.00000293  0.00000900  0.00001102  0.00000367   3509.42
   7   -56.47319724   -56.47319724    -0.00000000  0.00000013  0.00000015  0.00000009  0.00000046  0.00000062  0.00000021   4559.90
   8   -56.47319724   -56.47319724     0.00000000  0.00000010  0.00000013  0.00000008  0.00000091  0.00000097  0.00000032   5090.68
   9   -56.47319724   -56.47319724    -0.00000000  0.00000013  0.00000014  0.00000008  0.00000027  0.00000039  0.00000013   5796.99
  10   -56.47319724   -56.47319724    -0.00000000  0.00000007  0.00000009  0.00000005  0.00000091  0.00000115  0.00000038   6480.61
  11   -56.47319724   -56.47319724     0.00000000  0.00000011  0.00000013  0.00000007  0.00000057  0.00000070  0.00000023   7001.67
  12   -56.47319724   -56.47319724    -0.00000000  0.00000005  0.00000006  0.00000004  0.00000107  0.00000123  0.00000041   7522.41
  13   -56.47319724   -56.47319724    -0.00000000  0.00000010  0.00000013  0.00000007  0.00000068  0.00000079  0.00000026   8041.46
  14   -56.47319724   -56.47319724     0.00000000  0.00000006  0.00000007  0.00000004  0.00000134  0.00000153  0.00000051   8559.77
  15   -56.47319724   -56.47319724     0.00000000  0.00000010  0.00000013  0.00000007  0.00000085  0.00000098  0.00000033   9080.15
  16   -56.47319724   -56.47319724    -0.00000000  0.00000007  0.00000008  0.00000005  0.00000144  0.00000164  0.00000055   9600.17
  17   -56.47319724   -56.47319724    -0.00000000  0.00000012  0.00000014  0.00000008  0.00000092  0.00000104  0.00000035  10125.94
  18   -56.47319724   -56.47319724     0.00000000  0.00000007  0.00000009  0.00000005  0.00000170  0.00000193  0.00000064  10650.73
  19   -56.47319724   -56.47319724     0.00000000  0.00000013  0.00000016  0.00000009  0.00000109  0.00000124  0.00000041  11176.12
  20   -56.47319724   -56.47319724    -0.00000000  0.00000008  0.00000010  0.00000006  0.00000186  0.00000211  0.00000070  11699.20
  21   -56.47319724   -56.47319724    -0.00000000  0.00000015  0.00000018  0.00000011  0.00000118  0.00000134  0.00000045  12222.76
  22   -56.47319724   -56.47319724     0.00000000  0.00000009  0.00000012  0.00000007  0.00000212  0.00000240  0.00000080  12745.46
  23   -56.47319724   -56.47319724     0.00000000  0.00000016  0.00000020  0.00000012  0.00000135  0.00000154  0.00000051  13263.07
  24   -56.47319724   -56.47319724    -0.00000000  0.00000010  0.00000013  0.00000008  0.00000235  0.00000266  0.00000089  13781.90
  25   -56.47319724   -56.47319724    -0.00000000  0.00000018  0.00000023  0.00000013  0.00000149  0.00000170  0.00000057  14304.95
  26   -56.47319724   -56.47319724     0.00000000  0.00000012  0.00000015  0.00000008  0.00000265  0.00000301  0.00000100  14825.15
  27   -56.47319724   -56.47319724     0.00000000  0.00000020  0.00000026  0.00000015  0.00000169  0.00000192  0.00000064  15347.38
  28   -56.47319724   -56.47319724    -0.00000000  0.00000013  0.00000016  0.00000009  0.00000296  0.00000336  0.00000112  15872.41
  29   -56.47319724   -56.47319724    -0.00000000  0.00000023  0.00000029  0.00000017  0.00000188  0.00000214  0.00000071  16399.11
  30   -56.47319724   -56.47319724     0.00000000  0.00000015  0.00000018  0.00000011  0.00000332  0.00000377  0.00000126  16921.53
  31   -56.47319724   -56.47319724     0.00000000  0.00000025  0.00000032  0.00000019  0.00000216  0.00000245  0.00000082  17444.57
  32   -56.47319724   -56.47319724    -0.00000000  0.00000012  0.00000014  0.00000008  0.00000122  0.00000139  0.00000046  17968.12
  33   -56.47319724   -56.47319724    -0.00000000  0.00000012  0.00000013  0.00000008  0.00000058  0.00000066  0.00000022  18493.19
  34   -56.47319724   -56.47319724    -0.00000000  0.00000005  0.00000007  0.00000004  0.00000120  0.00000136  0.00000045  19016.41
  35   -56.47319724   -56.47319724     0.00000000  0.00000007  0.00000010  0.00000006  0.00000074  0.00000084  0.00000028  19537.39
  36   -56.47319724   -56.47319724     0.00000000  0.00000006  0.00000008  0.00000005  0.00000196  0.00000222  0.00000074  20062.45
  37   -56.47319724   -56.47319724    -0.00000000  0.00000015  0.00000019  0.00000011  0.00000133  0.00000151  0.00000050  20582.09
  38   -56.47319724   -56.47319724     0.00000000  0.00000009  0.00000011  0.00000006  0.00000166  0.00000188  0.00000063  21102.19
  39   -56.47319724   -56.47319724     0.00000000  0.00000015  0.00000018  0.00000010  0.00000103  0.00000118  0.00000039  21623.64
  40   -56.47319724   -56.47319724     0.00000000  0.00000009  0.00000011  0.00000007  0.00000227  0.00000257  0.00000086  22148.63
  41   -56.47319724   -56.47319724    -0.00000000  0.00000015  0.00000020  0.00000012  0.00000148  0.00000168  0.00000056  22672.52
  42   -56.47319724   -56.47319724     0.00000000  0.00000011  0.00000013  0.00000008  0.00000228  0.00000259  0.00000086  23195.51
  43   -56.47319724   -56.47319724     0.00000000  0.00000019  0.00000023  0.00000013  0.00000143  0.00000163  0.00000054  23748.33
  44   -56.47319724   -56.47319724     0.00000000  0.00000012  0.00000015  0.00000008  0.00000274  0.00000311  0.00000104  24282.00
  45   -56.47319724   -56.47319724    -0.00000000  0.00000020  0.00000026  0.00000015  0.00000177  0.00000201  0.00000067  24804.83
  46   -56.47319724   -56.47319724     0.00000000  0.00000013  0.00000017  0.00000010  0.00000294  0.00000334  0.00000111  25326.08
  47   -56.47319724   -56.47319724     0.00000000  0.00000023  0.00000029  0.00000017  0.00000186  0.00000211  0.00000070  25848.47
  48   -56.47319724   -56.47319724    -0.00000000  0.00000015  0.00000018  0.00000011  0.00000339  0.00000385  0.00000128  26369.07
  49   -56.47319724   -56.47319724    -0.00000000  0.00000025  0.00000032  0.00000019  0.00000221  0.00000251  0.00000084  26897.99
  50   -56.47319724   -56.47319724     0.00000000  0.00000012  0.00000014  0.00000008  0.00000123  0.00000140  0.00000047  27421.69
  51   -56.47319724   -56.47319724     0.00000000  0.00000012  0.00000014  0.00000008  0.00000059  0.00000067  0.00000022  27943.63
  52   -56.47319724   -56.47319724     0.00000000  0.00000005  0.00000007  0.00000004  0.00000121  0.00000138  0.00000046  28466.37
  53   -56.47319724   -56.47319724    -0.00000000  0.00000007  0.00000010  0.00000006  0.00000075  0.00000085  0.00000028  28990.09
  54   -56.47319724   -56.47319724    -0.00000000  0.00000006  0.00000008  0.00000005  0.00000199  0.00000226  0.00000075  29511.45
  55   -56.47319724   -56.47319724     0.00000000  0.00000015  0.00000019  0.00000011  0.00000135  0.00000153  0.00000051  30037.39
  56   -56.47319724   -56.47319724    -0.00000000  0.00000009  0.00000011  0.00000006  0.00000168  0.00000191  0.00000064  30559.47
  57   -56.47319724   -56.47319724    -0.00000000  0.00000015  0.00000018  0.00000011  0.00000105  0.00000119  0.00000040  31082.68
  58   -56.47319724   -56.47319724    -0.00000000  0.00000009  0.00000012  0.00000007  0.00000230  0.00000261  0.00000087  31606.19
  59   -56.47319724   -56.47319724     0.00000000  0.00000015  0.00000020  0.00000012  0.00000150  0.00000170  0.00000057  32130.44
  60   -56.47319724   -56.47319724    -0.00000000  0.00000011  0.00000013  0.00000008  0.00000232  0.00000263  0.00000088  32649.46
  61   -56.47319724   -56.47319724    -0.00000000  0.00000019  0.00000024  0.00000014  0.00000146  0.00000165  0.00000055  33176.09
  62   -56.47319724   -56.47319724     0.00000000  0.00000012  0.00000015  0.00000009  0.00000278  0.00000316  0.00000105  33699.68
  63   -56.47319724   -56.47319724     0.00000000  0.00000021  0.00000026  0.00000015  0.00000180  0.00000204  0.00000068  34222.16
  64   -56.47319724   -56.47319724    -0.00000000  0.00000014  0.00000017  0.00000010  0.00000299  0.00000340  0.00000113  34745.42
  65   -56.47319724   -56.47319724    -0.00000000  0.00000024  0.00000029  0.00000017  0.00000189  0.00000215  0.00000072  35269.32
  66   -56.47319724   -56.47319724     0.00000000  0.00000015  0.00000019  0.00000011  0.00000345  0.00000391  0.00000130  35792.61
  67   -56.47319724   -56.47319724     0.00000000  0.00000025  0.00000033  0.00000019  0.00000225  0.00000255  0.00000085  36317.02
  68   -56.47319724   -56.47319724    -0.00000000  0.00000012  0.00000014  0.00000008  0.00000125  0.00000143  0.00000048  36841.26
  69   -56.47319724   -56.47319724    -0.00000000  0.00000012  0.00000014  0.00000008  0.00000060  0.00000068  0.00000023  37369.14
  70   -56.47319724   -56.47319724     0.00000000  0.00000012  0.00000014  0.00000008  0.00000000  0.00000000  0.00000000  37891.79
  71   -56.47319724   -56.47319724    -0.00000000  0.00000012  0.00000014  0.00000008  0.00000000  0.00000000  0.00000000  38414.02

 END OF GEOMETRY OPTIMIZATION.

 Optimized variables
 RNH=                 1.01409754 ANG
 HNH=               105.64377973 DEGREE
 DHNH=              111.66734941 DEGREE

 **********************************************************************************************************************************

 Geometry written to block  1 of record 700

 Recomputing wavefunction for reoriented structure

 Current geometry (xyz format, in Angstrom)

    4
 CCSD(T)/VTZ  ENERGY=-56.47319724
 H         -0.8079932124        0.3268282339       -0.4664950987
 N          0.0000000000       -0.0705671681       -0.0000000000
 H          0.0000000000        0.3268282339        0.9329901974
 H          0.8079932124        0.3268282339       -0.4664950987

 **********************************************************************************************************************************


 **********************************************************************************************************************************
 DATASETS  * FILE   NREC   LENGTH (MB)   RECORD NAMES
              1      22       50.67       500      610      700      900      950      970     1000      129      960     1100   
                                          VAR    BASINP    GEOM    SYMINP    ZMAT    AOBASIS   BASIS     P2S    ABASIS      S 
                                         1400     1410     1200     1210     1080     1600     1650     1700     1380     3791   
                                           T        V       H0       H01     AOSYM     SMH    MOLCAS    OPER     JKOP   
                                         9876    55555   
                                         TGRAD   CCSD(T)    

              2       6        0.54       700     1000      520     2100     8500     9001   
                                         GEOM     BASIS   MCVARS     RHF     CPHF    DEN_MP2    

 PROGRAMS   *        TOTAL      OPTG   CCSD(T)    HF-SCF       INT
 CPU TIMES  *     38799.65  38518.89    245.25      3.71     21.20
 REAL TIME  *     40650.26 SEC
 DISK USED  *        51.36 MB (local),      622.55 MB (total)
 SF USED    *       102.77 MB
 GA USED    *         0.00 MB       (max)       0.00 MB       (current)
 **********************************************************************************************************************************


 PROGRAM * HESSIAN

 Computing numerical hessian using default procedure for command CCSD(T)

 Symmetry elements for unique displacements: X  

 Using AUTO symmetry option

 Running default procedure: HF-SCF000  CCSD(T)


 Numerically approximating hessian using central gradient differences

 Task list generated. Total number of displacements:     16

 All  16 tasks completed.  CPU=   1840.52 sec, Elapsed=   1556.76 sec.

 CCSD(T) hessian saved to record  5300.2

 PROGRAM * FREQUENCIES (Calculation of harmonic vibrational spectra for CCSD(T))


 Permanent Dipole Moment [debye]
   1-  3    0.000000    1.616248    0.000000

 Dipole Moment Norm    1.6162479 [debye]

 Dipole Moment Derivatives [debye/ang]
              1             2             3             4             5             6             7             8
    1     0.4083086     0.6193892    -0.1865143    -1.5483893     0.0000000     0.0000000     0.7311020     0.0000000
    2     0.4257120     0.8347747     0.2457668     0.0000000    -2.5040822    -0.0000002     0.0000000     0.8344460
    3    -0.1865813     0.3576043     0.6237653     0.0000000    -0.0000005    -1.5484879     0.0000000    -0.7152621
              9            10            11            12
    1     0.0000000     0.4083086    -0.6193892     0.1865143
    2    -0.4916276    -0.4257120     0.8347747     0.2457668
    3     0.3001853     0.1865813     0.3576043     0.6237653

 Projecting out rotations and translations

 Force Constants (Second Derivatives of the Energy) in [a.u.]
                             H1X1        H1Y1        H1Z1        NX2         NY2     
           H1X1          0.3136403
           H1Y1         -0.1234516   0.0767905
           H1Z1          0.1467838  -0.0712755   0.1441520
           NX2          -0.2855950   0.1548928  -0.1310136   0.6298629
           NY2           0.1038561  -0.0780102   0.0599616   0.0000000   0.2340316
           NZ2          -0.1310108   0.0894262  -0.1343165   0.0000000   0.0000024
           H2X3         -0.0003664  -0.0144285  -0.0345095  -0.0586729  -0.0000000
           H2Y3          0.0025829   0.0006101   0.0181531  -0.0000000  -0.0780112
           H2Z3          0.0029662  -0.0113116  -0.0185747   0.0000000  -0.1199256
           H3X4         -0.0276789  -0.0170126   0.0187392  -0.2855950  -0.1038561
           H3Y4          0.0170126   0.0006096  -0.0068391  -0.1548928  -0.0780102
           H3Z4         -0.0187392  -0.0068391   0.0087391   0.1310136   0.0599616
                             NZ2         H2X3        H2Y3        H2Z3        H3X4    
           NZ2           0.6298605
           H2X3          0.0000000   0.0594057
           H2Y3         -0.1788549  -0.0000000   0.0767911
           H2Z3         -0.3612276   0.0000000   0.1425488   0.3983770
           H3X4          0.1310108  -0.0003664  -0.0025829  -0.0029662   0.3136403
           H3Y4          0.0894262   0.0144285   0.0006101  -0.0113116   0.1234516
           H3Z4         -0.1343165   0.0345095   0.0181531  -0.0185747  -0.1467838
                             H3Y4        H3Z4    
           H3Y4          0.0767905
           H3Z4         -0.0712755   0.1441520


 Atomic Masses
   1-  4    1.007825   14.003070    1.007825    1.007825

 Mass weighted Second Derivative Matrix
                             H1X1        H1Y1        H1Z1        NX2         NY2     
           H1X1          0.3112052
           H1Y1         -0.1224931   0.0761943
           H1Z1          0.1456441  -0.0707221   0.1430328
           NX2          -0.0760232   0.0412313  -0.0348748   0.0449803
           NY2           0.0276457  -0.0207657   0.0159613   0.0000000   0.0167129
           NZ2          -0.0348741   0.0238046  -0.0357540   0.0000000   0.0000002
           H2X3         -0.0003636  -0.0143165  -0.0342415  -0.0156183  -0.0000000
           H2Y3          0.0025628   0.0006053   0.0180121  -0.0000000  -0.0207660
           H2Z3          0.0029432  -0.0112238  -0.0184305   0.0000000  -0.0319233
           H3X4         -0.0274640  -0.0168805   0.0185937  -0.0760232  -0.0276457
           H3Y4          0.0168805   0.0006049  -0.0067860  -0.0412313  -0.0207657
           H3Z4         -0.0185937  -0.0067860   0.0086713   0.0348748   0.0159613
                             NZ2         H2X3        H2Y3        H2Z3        H3X4    
           NZ2           0.0449802
           H2X3          0.0000000   0.0589445
           H2Y3         -0.0476098  -0.0000000   0.0761948
           H2Z3         -0.0961561   0.0000000   0.1414420   0.3952839
           H3X4          0.0348741  -0.0003636  -0.0025628  -0.0029432   0.3112052
           H3Y4          0.0238046   0.0143165   0.0006053  -0.0112238   0.1224931
           H3Z4         -0.0357540   0.0342415   0.0180121  -0.0184305  -0.1456441
                             H3Y4        H3Z4    
           H3Y4          0.0761943
           H3Z4         -0.0707221   0.1430328


 Mass Weighted 2nd Derivative Matrix Eigenvalues
   1- 10    0.000000    0.000000    0.000000    0.000000    0.000000    0.000000    0.046566    0.107817    0.107817    0.456173
  11- 12    0.489789    0.489800

 Mass Weighted 2nd Derivative Matrix Eigenvectors
              1             2             3             4             5             6             7             8
    1     0.2891854    -0.1053623     0.1452397    -0.0346317    -0.0199714     0.2968305     0.1703583     0.0786124
    2    -0.0284514     0.0788820     0.5905139     0.1949875     0.2621192     0.3319238     0.4922569    -0.2200148
    3    -0.1261994     0.2617711     0.2592291     0.2802473    -0.0739401    -0.3695151     0.0983584    -0.3803818
    4     0.7240451    -0.3989687     0.1340463     0.0679940    -0.1949102    -0.3453094     0.0000000    -0.2400201
    5     0.0220709    -0.2533815    -0.0931801     0.5637102     0.6552466     0.0440064    -0.3961809     0.0000000
    6     0.2517034     0.5202158    -0.2826728     0.5643179    -0.3410963     0.1206365     0.0000011     0.0000000
    7     0.1909453     0.3034546     0.3713841     0.0137337     0.1785221    -0.3962333     0.0000000     0.7374530
    8     0.3275793     0.1992476    -0.5051125    -0.0857322     0.4035960     0.0158869     0.4922552     0.0000000
    9    -0.0694804     0.0257406     0.1286646     0.2523235    -0.1885403     0.0306255    -0.1967208     0.0000000
   10     0.2891854    -0.1053623     0.1452397    -0.0346317    -0.0199714     0.2968305    -0.1703583     0.0786124
   11    -0.2813647    -0.4820577    -0.1603952     0.3444336    -0.1383554    -0.3123932     0.4922569     0.2200148
   12    -0.0127614    -0.2102899    -0.0019000     0.2243997    -0.3031406     0.4307661     0.0983584     0.3803818
              9            10            11            12
    1    -0.3803868    -0.4700558     0.3245481     0.5369260
    2    -0.1270247     0.1783853    -0.1489071    -0.2578917
    3     0.5178369    -0.2713888     0.1622387     0.3245146
    4     0.0000000     0.0000000     0.0000000    -0.2813411
    5     0.0000010    -0.1435789     0.0000092     0.0000000
    6    -0.2400161    -0.0000227    -0.2813445     0.0000000
    7     0.0000000     0.0000000     0.0000000    -0.0251497
    8     0.2540457     0.1784214     0.2977799     0.0000000
    9    -0.1410110     0.5428623     0.7242376     0.0000000
   10     0.3803868     0.4700558    -0.3245481     0.5369260
   11    -0.1270247     0.1783853    -0.1489071     0.2578917
   12     0.5178369    -0.2713888     0.1622387    -0.3245146

   Low Vibration      Wavenumber
        Nr             [1/cm] 
        1                0.00
        2                0.00
        3                0.00
        4                0.00
        5                0.00
        6                0.00

     Vibration        Wavenumber
        Nr             [1/cm] 
        1             1109.27
        2             1687.90
        3             1687.90
        4             3471.91
        5             3597.57
        6             3597.61

 FREQUENCIES * CALCULATION OF NORMAL MODES FOR CCSD(T)


 Atomic Coordinates

  Nr  Atom  Charge       X              Y              Z

   1   H1    1.00   -1.526885882    0.617615852   -0.881547975
   2   N     7.00    0.000000000   -0.133352621   -0.000000000
   3   H2    1.00    0.000000000    0.617615852    1.763095950
   4   H3    1.00    1.526885882    0.617615852   -0.881547975

 Gradient norm at reference geometry: 0.40330D-07

 Normal Modes

                              1 A`        2 A``       3 A`        4 A`        5 A` 
 Wavenumbers [cm-1]         1109.27     1687.90     1687.90     3471.91     3597.57
 Intensities [km/mol]        134.17       13.74       13.76        2.78        0.39
 Intensities [relative]      100.00       10.24       10.25        2.07        0.29
           H1X1             0.16970     0.07831    -0.37891    -0.46823     0.32329
           H1Y1             0.49034    -0.21916    -0.12653     0.17769    -0.14833
           H1Z1             0.09798    -0.37890     0.51582    -0.27033     0.16161
           NX2              0.00000    -0.06414     0.00000    -0.00000     0.00000
           NY2             -0.10587     0.00000     0.00000    -0.03837     0.00000
           NZ2              0.00000    -0.00000    -0.06414    -0.00001    -0.07518
           H2X3             0.00000     0.73458    -0.00000    -0.00000     0.00000
           H2Y3             0.49034     0.00000     0.25306     0.17773     0.29662
           H2Z3            -0.19596    -0.00000    -0.14046     0.54075     0.72142
           H3X4            -0.16970     0.07831     0.37891     0.46823    -0.32329
           H3Y4             0.49034     0.21916    -0.12653     0.17769    -0.14833
           H3Z4             0.09798     0.37890     0.51582    -0.27033     0.16161

                              6 A``
 Wavenumbers [cm-1]         3597.61
 Intensities [km/mol]          0.39
 Intensities [relative]        0.29
           H1X1             0.53484
           H1Y1            -0.25689
           H1Z1             0.32325
           NX2             -0.07518
           NY2              0.00000
           NZ2             -0.00000
           H2X3            -0.02505
           H2Y3             0.00000
           H2Z3             0.00000
           H3X4             0.53484
           H3Y4             0.25689
           H3Z4            -0.32325


 Normal Modes of low/zero frequencies

                                  1           2           3           4           5
 Wavenumbers [cm-1]            0.00        0.00        0.00        0.00        0.00
 Intensities [km/mol]          0.00        0.00        0.00        0.00        0.00
 Intensities [relative]        0.00        0.00        0.00        0.00        0.00
           H1X1             0.28806    -0.10495     0.14467    -0.03450    -0.01989
           H1Y1            -0.02834     0.07858     0.58822     0.19423     0.26110
           H1Z1            -0.12571     0.26075     0.25822     0.27916    -0.07365
           NX2              0.19349    -0.10662     0.03582     0.01817    -0.05209
           NY2              0.00590    -0.06771    -0.02490     0.15064     0.17510
           NZ2              0.06726     0.13902    -0.07554     0.15080    -0.09115
           H2X3             0.19020     0.30227     0.36994     0.01368     0.17783
           H2Y3             0.32631     0.19847    -0.50315    -0.08540     0.40203
           H2Z3            -0.06921     0.02564     0.12816     0.25134    -0.18781
           H3X4             0.28806    -0.10495     0.14467    -0.03450    -0.01989
           H3Y4            -0.28027    -0.48018    -0.15977     0.34309    -0.13782
           H3Z4            -0.01271    -0.20947    -0.00189     0.22353    -0.30196

                                  6
 Wavenumbers [cm-1]            0.00
 Intensities [km/mol]          0.00
 Intensities [relative]        0.00
           H1X1             0.29568
           H1Y1             0.33063
           H1Z1            -0.36808
           NX2             -0.09228
           NY2              0.01176
           NZ2              0.03224
           H2X3            -0.39469
           H2Y3             0.01583
           H2Z3             0.03051
           H3X4             0.29568
           H3Y4            -0.31118
           H3Z4             0.42909


 Frequencies dumped to record   5400.2

 Zero point energy:  0.03451917 [H]     7576.08 [1/CM]       90.63 [KJ/MOL]
 Frequency information read from record  5400.2

 Recomputing wavefunction at initial geometry


 **********************************************************************************************************************************
 DATASETS  * FILE   NREC   LENGTH (MB)   RECORD NAMES
              1      21       35.82       500      610      700      900      950      970     1000      129      960     1100   
                                          VAR    BASINP    GEOM    SYMINP    ZMAT    AOBASIS   BASIS     P2S    ABASIS      S 
                                         1400     1410     1200     1210     1080     1600     1650     1700     1380     3791   
                                           T        V       H0       H01     AOSYM     SMH    MOLCAS    OPER     JKOP   
                                        55555   
                                        CCSD(T)    

              2       9        0.56       700     1000      520     2100     8500     9001     5300     5450     5400   
                                         GEOM     BASIS   MCVARS     RHF     CPHF    DEN_MP2   HESS     NMOD     FREQ   

 PROGRAMS   *        TOTAL      FREQ      OPTG   CCSD(T)    HF-SCF       INT
 CPU TIMES  *     40647.83   1848.17  38518.89    245.25      3.71     21.20
 REAL TIME  *     42309.64 SEC
 DISK USED  *       283.50 MB (local),        2.76 GB (total)
 SF USED    *       102.78 MB
 GA USED    *         0.00 MB       (max)       0.00 MB       (current)
 **********************************************************************************************************************************

 Dump information in style MOLDEN to nh3.molden                                                                      

 Molecular orbitals read from record     2100.2  Type=RHF/CANONICAL (state 1.1)
 Occupation numbers read from record     2100.2  Type=RHF/RHF (state 1.1)
 Orbital energies read from record       2100.2  Type=RHF/CANONICAL (state 1.1)
 Redundancy group numbers read from rec  2100.2  Type=RHF/RHF (state 1.1)

 DUMP ORBITAL  1.1 AS ORBITAL    1  occ=    2.0000  eig=  -15.5353  GROUP=   2
 DUMP ORBITAL  2.1 AS ORBITAL    2  occ=    2.0000  eig=   -1.1385  GROUP=   2
 DUMP ORBITAL  1.2 AS ORBITAL    3  occ=    2.0000  eig=   -0.6214  GROUP=   2
 DUMP ORBITAL  3.1 AS ORBITAL    4  occ=    2.0000  eig=   -0.6214  GROUP=   2
 DUMP ORBITAL  4.1 AS ORBITAL    5  occ=    2.0000  eig=   -0.4294  GROUP=   2

 Total charge:      10.000000
 Frequency information read from record  5400.2

 **********************************************************************************************************************************

 CCSD(T)/cc-pVTZ energy=    -56.473197239072

   OPTG(CCSD(T))         CCSD(T)          HF-SCF
    -56.47319724    -56.47230444    -56.21696042
 **********************************************************************************************************************************
 Molpro calculation terminated
