
 Working directory              : /tmp/koe/molpro.YmywllE0AX/
 Global scratch directory       : /tmp/koe/molpro.YmywllE0AX/
 Wavefunction directory         : /home/koe/wfu/
 Main file repository           : /tmp/koe/molpro.YmywllE0AX/

 id        : liedlgroup

 Nodes     nprocs
 zh2-c724     1
 GA implementation: MPI file
 GA implementation (serial work in mppx): MPI file

 Using customized tuning parameters: mindgm=1; mindgv=20; mindgc=4; mindgr=1; noblas=0; minvec=7
 default implementation of scratch files=df  


 Variables initialized (1015), CPU time= 0.00 sec
 ***,o2 vibrational spectrum
 memory,1000,m
 
 orient,mass
 geometry={
 O1
 O2,O1,B1
 }
 
 B1=                  1.16 ANG
 
 mass,iso
 basis=vtz-f12
 {hf
 start,atden}
 ccsd(t)-f12a
 optg
 {freq,symm=auto, print=0}
 Commands initialized (834), CPU time= 0.00 sec, 672 directives.
 Default parameters read. Elapsed time= 0.07 sec

 Checking input...
 Passed
1


                                         ***  PROGRAM SYSTEM MOLPRO  ***
                                       Copyright, TTI GmbH Stuttgart, 2015
                                    Version 2022.2 linked Thu May  5 22:39:45 2022


 **********************************************************************************************************************************
 LABEL *   o2 vibrational spectrum                                                       
  (6 PROC) 64 bit serial version                                                         DATE: 26-Sep-22          TIME: 14:26:13  
 **********************************************************************************************************************************

 SHA1:             518bf5c5e315925380b88506c70af759aa1d1d96
 **********************************************************************************************************************************

 Memory per process:      1000 MW
 Total memory per node:   1000 MW

 GA preallocation disabled
 GA check disabled

 Variable memory set to 1000.0 MW

 ZCENTRE=MASS

 SETTING B1             =         1.16000000  ANG                             


 Using masses of most abundant isotopes

 **********************************************************************************************************************************
 SETTING BASIS          =    VTZ-F12


 Recomputing integrals since basis changed


 Using spherical harmonics

 Library entry O      S cc-pVTZ-F12          selected for orbital group  1
 Library entry O      P cc-pVTZ-F12          selected for orbital group  1
 Library entry O      D cc-pVTZ-F12          selected for orbital group  1
 Library entry O      F cc-pVTZ-F12          selected for orbital group  1


 PROGRAM * SEWARD (Integral evaluation for generally contracted gaussian basis sets)     Author: Roland Lindh, 1990

 Geometry written to block  1 of record 700

 Orientation using atomic masses  
 Molecule type: Linear
 Symmetry elements: X,Y,Z
 Rotational constants:      46.9623051     46.9623051      0.0000000 GHz

 Point group  D2h 



 ATOMIC COORDINATES

 NR  ATOM    CHARGE       X              Y              Z

   1  O1      8.00    0.000000000    0.000000000   -1.096041152
   2  O2      8.00    0.000000000    0.000000000    1.096041152

 Bond lengths in Bohr (Angstrom)

 1-2  2.192082305
     ( 1.160000000)

 NUCLEAR CHARGE:                   16
 NUMBER OF PRIMITIVE AOS:         144
 NUMBER OF SYMMETRY AOS:          126
 NUMBER OF CONTRACTIONS:          106   (   22Ag  +   13B3u +   13B2u +    5B1g +   22B1u +   13B2g +   13B3g +    5Au  )
 NUMBER OF INNER CORE ORBITALS:     0   (    0Ag  +    0B3u +    0B2u +    0B1g +    0B1u +    0B2g +    0B3g +    0Au  )
 NUMBER OF OUTER CORE ORBITALS:     2   (    1Ag  +    0B3u +    0B2u +    0B1g +    1B1u +    0B2g +    0B3g +    0Au  )
 NUMBER OF VALENCE ORBITALS:        8   (    2Ag  +    1B3u +    1B2u +    0B1g +    2B1u +    1B2g +    1B3g +    0Au  )


 NUCLEAR REPULSION ENERGY   29.19598405

 EXTRA SYMMETRY OF AOS IN SYMMETRY 1:   1 1 1 1 1 1 1 1 1 1   1 1 1 2 1 2 1 2 1 2   1 2
 EXTRA SYMMETRY OF AOS IN SYMMETRY 2:   1 1 1 1 1 1 1 1 1 1   2 1 2
 EXTRA SYMMETRY OF AOS IN SYMMETRY 3:   1 1 1 1 1 1 1 1 1 1   2 1 2
 EXTRA SYMMETRY OF AOS IN SYMMETRY 5:   1 1 1 1 1 1 1 1 1 1   1 1 1 2 1 2 1 2 1 2   1 2
 EXTRA SYMMETRY OF AOS IN SYMMETRY 6:   1 1 1 1 1 1 1 1 1 1   2 1 2
 EXTRA SYMMETRY OF AOS IN SYMMETRY 7:   1 1 1 1 1 1 1 1 1 1   2 1 2

 Eigenvalues of metric

         1 0.531E-03 0.695E-03 0.661E-02 0.386E-01 0.535E-01 0.132E+00 0.159E+00 0.226E+00
         2 0.717E-03 0.656E-01 0.153E+00 0.243E+00 0.392E+00 0.486E+00 0.731E+00 0.938E+00
         3 0.717E-03 0.656E-01 0.153E+00 0.243E+00 0.392E+00 0.486E+00 0.731E+00 0.938E+00
         4 0.226E+00 0.445E+00 0.936E+00 0.174E+01 0.271E+01
         5 0.296E-03 0.626E-03 0.999E-03 0.140E-02 0.356E-02 0.501E-01 0.694E-01 0.898E-01
         6 0.671E-03 0.649E-02 0.342E-01 0.106E+00 0.161E+00 0.267E+00 0.350E+00 0.378E+00
         7 0.671E-03 0.649E-02 0.342E-01 0.106E+00 0.161E+00 0.267E+00 0.350E+00 0.378E+00
         8 0.898E-01 0.232E+00 0.628E+00 0.106E+01 0.194E+01


 Contracted 2-electron integrals neglected if value below      1.0D-11
 AO integral compression algorithm  1   Integral accuracy      1.0D-11

     18.350 MB (compressed) written to integral file ( 51.6%)


 NUMBER OF SORTED TWO-ELECTRON INTEGRALS:    2138127.     BUFFER LENGTH:  32768
 NUMBER OF SEGMENTS:   1  SEGMENT LENGTH:    2138127      RECORD LENGTH: 524288

 Memory used in sort:       2.70 MW

 SORT1 READ     4395224. AND WROTE     1787829. INTEGRALS IN      6 RECORDS. CPU TIME:     0.08 SEC, REAL TIME:     0.11 SEC
 SORT2 READ     1787829. AND WROTE     2138127. INTEGRALS IN     70 RECORDS. CPU TIME:     0.15 SEC, REAL TIME:     0.17 SEC

 FILE SIZES:   FILE 1:    48.6 MBYTE,  FILE 4:    25.2 MBYTE,   TOTAL:     73.8 MBYTE

 OPERATOR DM      FOR CENTER  0  COORDINATES:    0.000000    0.000000    0.000000


 **********************************************************************************************************************************
 DATASETS  * FILE   NREC   LENGTH (MB)   RECORD NAMES
              1      19       37.49       500      610      700      900      950      970     1000      129      960     1100   
                                          VAR    BASINP    GEOM    SYMINP    ZMAT    AOBASIS   BASIS     P2S    ABASIS      S 
                                         1400     1410     1200     1210     1080     1600     1650     1300     1700   
                                           T        V       H0       H01     AOSYM     SMH    MOLCAS    ERIS     OPER   

 PROGRAMS   *        TOTAL       INT
 CPU TIMES  *         4.43      4.29
 REAL TIME  *         2.07 SEC
 DISK USED  *        70.66 MB
 **********************************************************************************************************************************


 Program * Restricted Hartree-Fock

 Orbital guess generated from atomic densities. Full valence occupancy:    3   1   1   0   3   1   1   0


 Initial alpha occupancy:   3   1   1   0   2   1   1   0
 Initial beta  occupancy:   3   1   1   0   2   0   0   0

 NELEC=   16   SYM=4   MS2= 2   THRE=1.0D-08   THRD=1.0D-06   THRG=1.0D-06  HFMA2=F  DIIS_START=2   DIIS_MAX=10   DIIS_INCORE=F

 Level shifts:    0.00 (CLOSED)    0.00 (OPEN)    0.30 (GAP_MIN)

 ITER           ETOT              DE          GRAD        DDIFF     DIIS  NEXP   TIME(IT)  TIME(TOT)  DIAG
   1     -149.63618602    -149.63618602     0.00D+00     0.17D+00     0     0       0.04      0.05    start
   2     -149.66732282      -0.03113680     0.17D-01     0.13D-01     1     0       0.01      0.06    diag2
   3     -149.67015212      -0.00282931     0.62D-02     0.42D-02     2     0       0.00      0.06    diag2
   4     -149.67025955      -0.00010743     0.65D-03     0.79D-03     3     0       0.01      0.07    diag2
   5     -149.67026897      -0.00000942     0.18D-03     0.27D-03     4     0       0.01      0.08    diag2
   6     -149.67026914      -0.00000017     0.24D-04     0.37D-04     5     0       0.00      0.08    diag2
   7     -149.67026915      -0.00000000     0.34D-05     0.40D-05     6     0       0.01      0.09    diag2
   8     -149.67026915      -0.00000000     0.48D-06     0.78D-06     7     0       0.00      0.09    fixocc
   9     -149.67026915      -0.00000000     0.47D-07     0.52D-07     0     0       0.01      0.10    diag

 Final alpha occupancy:   3   1   1   0   2   1   1   0
 Final beta  occupancy:   3   1   1   0   2   0   0   0

 !RHF STATE 1.4 Energy               -149.670269146549
  RHF One-electron energy            -263.857767119606
  RHF Two-electron energy              84.991513923236
  RHF Kinetic energy                  149.621786162411
  RHF Nuclear energy                   29.195984049821
  RHF Virial quotient                  -1.000324036929

 !RHF STATE 1.4 Dipole moment           0.00000000     0.00000000     0.00000000
 Dipole moment /Debye                   0.00000000     0.00000000     0.00000000

 Orbital energies:

           1.1          2.1          3.1          4.1          5.1
    -20.722122    -1.694474    -0.749782     0.123824     0.190449

           1.2          2.2          3.2
     -0.726962     0.129775     0.665536

           1.3          2.3          3.3
     -0.726962     0.129775     0.665536

           1.4          2.4
      0.921019     2.207252

           1.5          2.5          3.5          4.5
    -20.720963    -1.082899     0.094132     0.324071

           1.6          2.6          3.6
     -0.513205     0.175190     0.695851

           1.7          2.7          3.7
     -0.513205     0.175190     0.695851

           1.8          2.8
      1.288222     2.962627


 HOMO      1.7    -0.513205 =     -13.9650eV
 LUMO      3.5     0.094132 =       2.5615eV
 LUMO-HOMO         0.607336 =      16.5265eV

 Orbitals saved in record  2100.2


 **********************************************************************************************************************************
 DATASETS  * FILE   NREC   LENGTH (MB)   RECORD NAMES
              1      19       37.49       500      610      700      900      950      970     1000      129      960     1100   
                                          VAR    BASINP    GEOM    SYMINP    ZMAT    AOBASIS   BASIS     P2S    ABASIS      S 
                                         1400     1410     1200     1210     1080     1600     1650     1300     1700   
                                           T        V       H0       H01     AOSYM     SMH    MOLCAS    ERIS     OPER   

              2       4        0.42       700     1000      520     2100   
                                         GEOM     BASIS   MCVARS     RHF  

 PROGRAMS   *        TOTAL    HF-SCF       INT
 CPU TIMES  *         4.53      0.11      4.29
 REAL TIME  *         2.16 SEC
 DISK USED  *        70.66 MB
 **********************************************************************************************************************************


 PROGRAM * CCSD (Unrestricted open-shell coupled cluster)     Authors: C. Hampel, H.-J. Werner, 1991, M. Deegan, P.J. Knowles, 1992

                           UCCSD-F12 implementation by G. Knizia and H.-J. Werner, 2008

                   Density fitting integral evaluation by F.R. Manby, 2003,2007, G. Knizia, 2010


 Basis set VTZ-F12/JKFIT generated.      Number of basis functions:   208 
 Basis set CC-PVTZ-F12/OPTRI generated.  Number of basis functions:   150 
 Basis set VTZ-F12/MP2FIT generated.     Number of basis functions:   212 

 Convergence thresholds:  THRVAR = 1.00D-12  THRDEN = 1.00D-08

 CCSD(T)     terms to be evaluated (factor= 1.000)


 Number of core orbitals:           2 (   1   0   0   0   1   0   0   0 )
 Number of closed-shell orbitals:   5 (   2   1   1   0   1   0   0   0 )
 Number of active  orbitals:        2 (   0   0   0   0   0   1   1   0 )
 Number of external orbitals:      97 (  19  12  12   5  20  12  12   5 )

 Memory could be reduced to 1.93 Mwords without degradation in triples

 Number of N-1 electron functions:              12
 Number of N-2 electron functions:              66
 Number of singly external CSFs:               190
 Number of doubly external CSFs:             63979
 Total number of CSFs:                       64169

 Molecular orbitals read from record     2100.2  Type=RHF/CANONICAL  

 Integral transformation finished. Total CPU:   0.88 sec, npass=  1  Memory used:   0.43 MW

 Geminal basis:    OPTFULL  GEM_TYPE=SLATER  BETA=1.0  NGEM=6

 Optimizing Gaussian exponents for each gem_beta

 Geminal optimization for beta= 1.0000
 Weight function:   m=0, omega= 1.4646

 Augmented Hessian optimization of geminal fit. Trust ratio= 0.40000
 Convergence reached after   2 iterations. Final gradient= 9.01D-16, Step= 4.09D-06, Delta= 1.28D-09

 Alpha:                 0.19532     0.81920     2.85917     9.50073    35.69989   197.79328
 Coeff:                 0.27070     0.30552     0.18297     0.10986     0.06810     0.04224


 WFN_F12=FIX,EG    DECOUPLE_EXPL=F   HYBRID=0    NOX=F   SEMIINT_F12=T   CORE_SINGLES=F


 AO(A)-basis ORBITAL           loaded. Number of functions:     106
 RI(R)-basis CC-PVTZ-F12/OPTRI loaded. Number of functions:     150
 DF-basis VTZ-F12/JKFIT        loaded. Number of functions:     208

 Screening thresholds:   THRAO=  1.00D-10  THRMO=  1.00D-10  THRPROD=  1.00D-10
                         THRSW=  1.00D-07  THROV=  1.00D-12  THRAOF12= 1.00D-08

 CPU time for one-electron matrices               0.98 sec

 Construction of ABS:
 Pseudo-inverse stability          8.03E-13
 Smallest eigenvalue of S          6.28E-04  (threshold= 1.00E-08)
 Ratio eigmin/eigmax               1.33E-04  (threshold= 1.00E-09)
 Smallest eigenvalue of S kept     6.28E-04  (threshold= 6.28E-04, 0 functions deleted, 150 kept)

 Construction of CABS:
 Pseudo-inverse stability          1.53E-10
 Smallest eigenvalue of S          2.52E-06  (threshold= 1.00E-08)
 Ratio eigmin/eigmax               2.52E-06  (threshold= 1.00E-09)
 Smallest eigenvalue of S kept     2.52E-06  (threshold= 2.52E-06, 0 functions deleted, 150 kept)

 CPU time for basis constructions                 0.08 sec
 Fock operators(MO) rebuilt from dump record.
 CPU time for Fock operator transformation        0.26 sec

                                      TOTAL          ALPHA          BETA    
  Singles Contributions MO        -0.013149584   -0.006361269   -0.006788315
  Singles Contributions CABS      -0.001282911   -0.000736939   -0.000545973
  Pure DF-RHF relaxation          -0.001247899

 CPU time for RHF CABS relaxation                 0.12 sec
 CPU time for singles (tot)                       0.39 sec

 AO(A)-basis ORBITAL           loaded. Number of functions:     106
 RI(R)-basis CC-PVTZ-F12/OPTRI loaded. Number of functions:     150
 DF-basis VTZ-F12/MP2FIT       loaded. Number of functions:     212

 Screening thresholds:   THRAO=  1.00D-10  THRMO=  1.00D-10  THRPROD=  1.00D-10
                         THRSW=  1.00D-07  THROV=  1.00D-12  THRAOF12= 1.00D-08

 CPU time for transformed integrals               5.69 sec
 CPU time for F12 matrices                        0.76 sec

 Diagonal F12 ansatz with fixed amplitudes:   TS= 0.5000  TT= 0.2500  TN= 0.3750

 ITER.     SQ.NORM      CORR.ENERGY   TOTAL ENERGY  ENERGY CHANGE      VAR         CPU   MICRO    DIIS
   1      1.12564731    -0.53123390  -150.20275095    -5.3248E-01   1.18E-01      0.01  1  1  1   0  0
   2      1.12060538    -0.52376229  -150.19527933     7.4716E-03   2.79E-04      0.02  0  0  0   1  1
   3      1.12121361    -0.52444956  -150.19596661    -6.8728E-04   1.39E-06      0.06  0  0  0   2  2
   4      1.12121720    -0.52445237  -150.19596941    -2.8033E-06   8.82E-09      0.08  0  0  0   3  3
   5      1.12121850    -0.52445239  -150.19596943    -1.9518E-08   1.53E-11      0.12  0  0  0   4  4
   6      1.12121852    -0.52445239  -150.19596943    -3.5206E-11   2.91E-14      0.15  0  0  0   5  5

 - - Continuing with F12/conv. amplitude coupling turned on.

   7      1.12116505    -0.52449977  -150.19601682    -4.7384E-05   3.95E-05      0.18  1  1  1   1  1
   8      1.12116340    -0.52449978  -150.19601682    -6.0167E-09   1.46E-09      0.21  1  1  1   2  2
   9      1.12116337    -0.52449968  -150.19601673     9.6821E-08   1.46E-12      0.25  1  1  1   3  3
  10      1.12116336    -0.52449967  -150.19601672     7.5283E-09   1.98E-15      0.37  1  1  1   4  4

 CPU time for iterative RMP2-F12                  0.37 sec


 DF-RMP2-F12 doubles corrections:
 - - - - - - - - - - - - - - - - 
  Approx.                             TOTAL           A-B            A-A            B-B    
  RMP2-F12/3C(FIX)                -0.041620134   -0.037953450   -0.002535760   -0.001130923
  RMP2-F12/3*C(FIX)               -0.041572848   -0.038043308   -0.002451620   -0.001077920
  RMP2-F12/3*C(DX)                -0.041914907   -0.038336423   -0.002485763   -0.001092721
  RMP2-F12/3*C(FIX,DX)            -0.045567860   -0.041580764   -0.002771373   -0.001215722

 DF-RMP2-F12 doubles energies:
 - - - - - - - - - - - - - - -
  Approx.                             TOTAL           A-B            A-A            B-B    
  RMP2                            -0.469729954   -0.334999733   -0.063615489   -0.071114733
  RMP2-F12/3C(FIX)                -0.511350089   -0.372953183   -0.066151249   -0.072245656
  RMP2-F12/3*C(FIX)               -0.511302803   -0.373043040   -0.066067109   -0.072192653
  RMP2-F12/3*C(DX)                -0.511644862   -0.373336156   -0.066101252   -0.072207453
  RMP2-F12/3*C(FIX,DX)            -0.515297815   -0.376580497   -0.066386862   -0.072330455


  Reference energy                   -149.670269146549
  CABS relaxation correction to RHF    -0.001247899389
  New reference energy               -149.671517045938

  RMP2-F12 singles (MO) energy         -0.013149584069
  RMP2-F12 pair energy                 -0.511350088504
  RMP2-F12 correlation energy          -0.524499672573

 !RMP2-F12/3C(FIX) energy            -150.196016718511

 Starting RMP2 calculation, locsing= 0

 ITER.      SQ.NORM     CORR.ENERGY   TOTAL ENERGY   ENERGY CHANGE        DEN1      VAR(S)    VAR(P)  DIIS     TIME
   1      1.12008335    -0.48170176  -150.15197091    -0.48170176    -0.00107414  0.37D-04  0.35D-03  1  1     9.57
   2      1.12115899    -0.48286165  -150.15313079    -0.00115989    -0.00000496  0.87D-07  0.22D-05  2  2     9.59
   3      1.12121600    -0.48289475  -150.15316389    -0.00003310    -0.00000004  0.55D-09  0.17D-07  3  3     9.61
   4      1.12121696    -0.48289422  -150.15316337     0.00000053    -0.00000000  0.76D-11  0.12D-09  4  4     9.64
   5      1.12121683    -0.48289412  -150.15316326     0.00000010    -0.00000000  0.62D-13  0.31D-12  5  5     9.68
   6      1.12121682    -0.48289412  -150.15316326     0.00000000    -0.00000000  0.30D-15  0.12D-14  6  6     9.72

 Norm of t1 vector:      0.08464797      S-energy:    -0.01314958      T1 diagnostic:  0.00092473
 Norm of t2 vector:      0.33771518      P-energy:    -0.46974453
                                         Alpha-Beta:  -0.33511938
                                         Alpha-Alpha: -0.06355470
                                         Beta-Beta:   -0.07107046

 Spin contamination <S**2-Sz**2-Sz>     0.00096280
  Reference energy                   -149.670269146549
  CABS singles correction              -0.001247899389
  New reference energy               -149.671517045938
  RHF-RMP2 correlation energy          -0.482894116372
 !RHF-RMP2 energy                    -150.154411162310

  F12/3C(FIX) correction               -0.041620134079
  RHF-RMP2-F12 correlation energy      -0.524514250452
 !RHF-RMP2-F12 total energy          -150.196031296390

 Starting UCCSD calculation

 ITER.      SQ.NORM     CORR.ENERGY   TOTAL ENERGY   ENERGY CHANGE        DEN1      VAR(S)    VAR(P)  DIIS     TIME
   1      1.10028954    -0.44833854  -150.11860768    -0.44833854    -0.01638306  0.15D-02  0.28D-02  1  1    11.63
   2      1.10830433    -0.46167843  -150.13194758    -0.01333990    -0.00087195  0.73D-04  0.22D-03  2  2    12.10
   3      1.10953029    -0.46202657  -150.13229572    -0.00034814    -0.00006981  0.87D-05  0.19D-04  3  3    12.48
   4      1.11048361    -0.46265796  -150.13292711    -0.00063139    -0.00000462  0.68D-06  0.14D-05  4  4    13.27
   5      1.11064836    -0.46268818  -150.13295732    -0.00003021    -0.00000033  0.35D-07  0.11D-06  5  5    14.59
   6      1.11067711    -0.46269025  -150.13295940    -0.00000207    -0.00000003  0.54D-08  0.89D-08  6  6    14.88
   7      1.11068125    -0.46269225  -150.13296140    -0.00000200    -0.00000000  0.44D-09  0.85D-09  6  1    15.27
   8      1.11068200    -0.46269237  -150.13296152    -0.00000012    -0.00000000  0.49D-10  0.64D-10  6  2    15.60
   9      1.11068208    -0.46269242  -150.13296156    -0.00000005    -0.00000000  0.25D-11  0.32D-11  6  3    16.95
  10      1.11068205    -0.46269234  -150.13296149     0.00000008    -0.00000000  0.20D-12  0.33D-12  6  4    17.57
  11      1.11068206    -0.46269238  -150.13296152    -0.00000003    -0.00000000  0.18D-13  0.33D-13  6  5    17.93
  12      1.11068206    -0.46269237  -150.13296151     0.00000001    -0.00000000  0.10D-14  0.35D-14  6  6    18.22

 Norm of t1 vector:      0.08251962      S-energy:    -0.01156253      T1 diagnostic:  0.00706181
                                                                       D1 diagnostic:  0.01256771
                                                                       D2 diagnostic:  0.13837029 (internal)
 Norm of t2 vector:      0.32229268      P-energy:    -0.45112983
                                         Alpha-Beta:  -0.33385401
                                         Alpha-Alpha: -0.05731312
                                         Beta-Beta:   -0.05996271

 Doubles amplitudes (print threshold =  0.500E-01):

         I         J         SYM. A    SYM. B    A         B      T(IJ, AB) [Beta-Beta]

         4         3         6         7         1         1      0.09270287
         4         3         7         6         1         1     -0.09270287

 Spin contamination <S**2-Sz**2-Sz>     0.00032391

 Memory could be reduced to 2.12 Mwords without degradation in triples


 RESULTS
 =======

  Reference energy                   -149.670269146549
  CABS relaxation correction to RHF    -0.001247899389
  New reference energy               -149.671517045938

  F12 corrections for ansatz 3C(FIX) added to UCCSD energy. Coupling mode:  7

  UCCSD-F12a singles energy            -0.011562533321
  UCCSD-F12a pair energy               -0.492092187292
  UCCSD-F12a correlation energy        -0.503654720613
  Triples (T) contribution             -0.019247956900
  Total correlation energy             -0.522902677513

  RHF-UCCSD-F12a energy              -150.175171766551
  RHF-UCCSD[T]-F12a energy           -150.194135241111
  RHF-UCCSD-T-F12a energy            -150.194063349619
 !RHF-UCCSD(T)-F12a energy           -150.194419723451

 Program statistics:

 Available memory in ccsd:               999999535
 Min. memory needed in ccsd:                221372
 Max. memory used in ccsd:                  294271
 Max. memory used in cckext:                265862 (12 integral passes)
 Max. memory used in cckint:                434603 ( 1 integral passes)



 **********************************************************************************************************************************
 DATASETS  * FILE   NREC   LENGTH (MB)   RECORD NAMES
              1      19       37.49       500      610      700      900      950      970     1000      129      960     1100   
                                          VAR    BASINP    GEOM    SYMINP    ZMAT    AOBASIS   BASIS     P2S    ABASIS      S 
                                         1400     1410     1200     1210     1080     1600     1650     1300     1700   
                                           T        V       H0       H01     AOSYM     SMH    MOLCAS    ERIS     OPER   

              2       5        0.43       700     1000      520     2100     7360   
                                         GEOM     BASIS   MCVARS     RHF    F12ABS    

 PROGRAMS   *        TOTAL   CCSD(T)    HF-SCF       INT
 CPU TIMES  *        29.91     25.38      0.11      4.29
 REAL TIME  *         8.64 SEC
 DISK USED  *       213.68 MB
 **********************************************************************************************************************************


 PROGRAM * OPT (Geometry optimization)     Authors: F. Eckert and H.-J. Werner


 BFGS update of hessian

 *** Long output written to logfile /media/fileserver/01_users/Kemal/nomodeco_dev/git_dr/decomposing-vibrations/tests/o2.log ***


 Geometry optimization using default procedure for command CCSD(T)-F12A

 Geometry written to block  1 of record 700

 Making model hessian for Z-matrix coordinates

 Entering Rational Function Geometry Optimization

 ITER.   ENERGY(OLD)    ENERGY(NEW)      DE          GRADMAX     GRADNORM    GRADRMS     STEPMAX     STEPLEN     STEPRMS   CPU-time
   1  -150.19441972  -150.19770248    -0.00328276  0.08204260  0.08204260  0.08204260  0.06941116  0.06941116  0.06941116     67.48
   2  -150.19770248  -150.19784610    -0.00014362  0.01555789  0.01555789  0.01555789  0.01623842  0.01623842  0.01623842    121.44
   3  -150.19784610  -150.19784953    -0.00000343  0.00237122  0.00237122  0.00237122  0.00291996  0.00291996  0.00291996    174.66
   4  -150.19784953  -150.19784953     0.00000000  0.00008607  0.00008607  0.00008607  0.00010998  0.00010998  0.00010998    228.55

 END OF GEOMETRY OPTIMIZATION.

 Optimized variables
 B1=                  1.20692718 ANG

 **********************************************************************************************************************************

 Geometry written to block  1 of record 700

 Recomputing wavefunction for reoriented structure

 Current geometry (xyz format, in Angstrom)

    2
 CCSD(T)-F12A/VTZ-F12  ENERGY=-150.19784953
 O          0.0000000000        0.0000000000       -0.6034635922
 O          0.0000000000        0.0000000000        0.6034635922

 **********************************************************************************************************************************


 **********************************************************************************************************************************
 DATASETS  * FILE   NREC   LENGTH (MB)   RECORD NAMES
              1      19       37.46       500      610      700      900      950      970     1000      129      960     1100   
                                          VAR    BASINP    GEOM    SYMINP    ZMAT    AOBASIS   BASIS     P2S    ABASIS      S 
                                         1400     1410     1200     1210     1080     1600     1650     1300     1700   
                                           T        V       H0       H01     AOSYM     SMH    MOLCAS    ERIS     OPER   

              2       6        0.43       700     1000      520     2100     7360     5600   
                                         GEOM     BASIS   MCVARS     RHF    F12ABS    GINFO   

 PROGRAMS   *        TOTAL      OPTG   CCSD(T)    HF-SCF       INT
 CPU TIMES  *       272.85    242.94     25.38      0.11      4.29
 REAL TIME  *        76.96 SEC
 DISK USED  *       213.84 MB
 **********************************************************************************************************************************


 PROGRAM * HESSIAN

 Computing numerical hessian using default procedure for command CCSD(T)-F12A

 Symmetry elements for unique displacements: X  Y  Z  

 Using AUTO symmetry option

 Running default procedure: HF-SCF000  CCSD(T)-F12A


 Numerically approximating hessian using central energy differences

 Task list generated. Total number of displacements:      8

    5 tasks completed, CPU=3m 32s Elapsed=50s

 Numerical CCSD(T)-F12A hessian completed. CPU-time:   309.54 sec, Elapsed:    72.97 sec

 CCSD(T)-F12A hessian saved to record  5300.2

 PROGRAM * FREQUENCIES (Calculation of harmonic vibrational spectra for CCSD(T)-F12A)


 Permanent Dipole Moment [debye]
   1-  3    0.000000    0.000000    0.000000

 Dipole Moment Norm    0.0000000 [debye]

 Dipole Moment Derivatives [debye/ang]
              1             2             3             4             5             6
    1    0.00000000    0.00000000    0.00000000    0.00000000    0.00000000    0.00000000
    2    0.00000000    0.00000000    0.00000000    0.00000000    0.00000000    0.00000000
    3    0.00000000    0.00000000    0.00000000    0.00000000    0.00000000    0.00000000

 Projecting out rotations and translations

 Force Constants (Second Derivatives of the Energy) in [a.u.]
                             O1X1        O1Y1        O1Z1        O2X2        O2Y2    
           O1X1          0.0000000
           O1Y1          0.0000000   0.0000000
           O1Z1          0.0000000   0.0000000   0.7777912
           O2X2         -0.0000000   0.0000000   0.0000000   0.0000000
           O2Y2          0.0000000  -0.0000000   0.0000000   0.0000000   0.0000000
           O2Z2          0.0000000   0.0000000  -0.7777912   0.0000000   0.0000000
                             O2Z2    
           O2Z2          0.7777912


 Atomic Masses
   1-  2   15.994910   15.994910

 Mass weighted Second Derivative Matrix
                             O1X1        O1Y1        O1Z1        O2X2        O2Y2    
           O1X1          0.0000000
           O1Y1          0.0000000   0.0000000
           O1Z1          0.0000000   0.0000000   0.0486274
           O2X2         -0.0000000   0.0000000   0.0000000   0.0000000
           O2Y2          0.0000000  -0.0000000   0.0000000   0.0000000   0.0000000
           O2Z2          0.0000000   0.0000000  -0.0486274   0.0000000   0.0000000
                             O2Z2    
           O2Z2          0.0486274


 Mass Weighted 2nd Derivative Matrix Eigenvalues
   1-  6    0.000000    0.000000    0.000000    0.000000    0.000000    0.097255

 Mass Weighted 2nd Derivative Matrix Eigenvectors
              1             2             3             4             5             6
    1    0.00000000    0.00000000    0.70710678    0.00000000    0.70710678    0.00000000
    2    0.85087421    0.00000000    0.00000000   -0.52536948    0.00000000    0.00000000
    3    0.00000000    0.70710678    0.00000000    0.00000000    0.00000000    0.70710678
    4    0.00000000    0.00000000    0.70710678    0.00000000   -0.70710678    0.00000000
    5    0.52536948    0.00000000    0.00000000    0.85087421    0.00000000    0.00000000
    6    0.00000000    0.70710678    0.00000000    0.00000000    0.00000000   -0.70710678

   Low Vibration      Wavenumber
        Nr             [1/cm] 
        1                0.00
        2                0.00
        3                0.00
        4                0.00
        5                0.00

     Vibration        Wavenumber
        Nr             [1/cm] 
        1             1603.10

 FREQUENCIES * CALCULATION OF NORMAL MODES FOR CCSD(T)-F12A


 Atomic Coordinates

  Nr  Atom  Charge       X              Y              Z

   1   O1    8.00    0.000000000    0.000000000   -1.140380915
   2   O2    8.00    0.000000000    0.000000000    1.140380915

 Gradient norm at reference geometry: 0.71209D-06

 Normal Modes

                              1 Ag 
 Wavenumbers [cm-1]         1603.10
 Intensities [km/mol]          0.00
 Intensities [relative]        0.00
           O1X1            -0.00000
           O1Y1            -0.00000
           O1Z1             0.17680
           O2X2            -0.00000
           O2Y2            -0.00000
           O2Z2            -0.17680


 Normal Modes of low/zero frequencies

                                  1           2           3           4           5
 Wavenumbers [cm-1]            0.00        0.00        0.00        0.00        0.00
 Intensities [km/mol]          0.00        0.00        0.00        0.00        0.00
 Intensities [relative]        0.00        0.00        0.00        0.00        0.00
           O1X1             0.00000     0.00000     0.17680    -0.00000     0.17680
           O1Y1             0.21275     0.00000    -0.00000    -0.13136    -0.00000
           O1Z1             0.00000     0.17680    -0.00000    -0.00000    -0.00000
           O2X2            -0.00000    -0.00000     0.17680    -0.00000    -0.17680
           O2Y2             0.13136    -0.00000    -0.00000     0.21275    -0.00000
           O2Z2            -0.00000     0.17680    -0.00000    -0.00000    -0.00000


 Frequencies dumped to record   5400.2

 Zero point energy:  0.00365212 [H]      801.55 [1/CM]        9.59 [KJ/MOL]
 Frequency information read from record  5400.2

 Recomputing wavefunction at initial geometry


 **********************************************************************************************************************************
 DATASETS  * FILE   NREC   LENGTH (MB)   RECORD NAMES
              1      19       37.46       500      610      700      900      950      970     1000      129      960     1100   
                                          VAR    BASINP    GEOM    SYMINP    ZMAT    AOBASIS   BASIS     P2S    ABASIS      S 
                                         1400     1410     1200     1210     1080     1600     1650     1300     1700   
                                           T        V       H0       H01     AOSYM     SMH    MOLCAS    ERIS     OPER   

              2       9        0.43       700     1000      520     2100     7360     5600     5300     5450     5400   
                                         GEOM     BASIS   MCVARS     RHF    F12ABS    GINFO    HESS     NMOD     FREQ   

 PROGRAMS   *        TOTAL      FREQ      OPTG   CCSD(T)    HF-SCF       INT
 CPU TIMES  *       586.88    314.02    242.94     25.38      0.11      4.29
 REAL TIME  *       154.99 SEC
 DISK USED  *       376.21 MB
 **********************************************************************************************************************************

 CCSD(T)-F12A/cc-pVTZ-F12 energy=   -150.197849528870

   OPTG(CCSD(T))    CCSD(T)-F12A          HF-SCF
   -150.19784953   -150.19441972   -149.67026915
 **********************************************************************************************************************************
 Molpro calculation terminated
