[Molden Format]
[Molpro variables]
_NUMVAR=  1112.000000000000    
_AVOGAD= 0.6022140760000000E+24
_BOLTZ= 0.1380649000000000E-22
_CLIGHTSI=  299792458.0000000    
_JOULE= 0.4359744722207100E-17
_JPCAL=  4.184000000000000    
_PLANCK= 0.6626070150000000E-33
_BOHR= 0.5291772109030000E-10
_ECHARG= 0.1602176634000000E-18
_ENULL= 0.8854187812800001E-11
_MU= 0.1660539066600000E-26
_EMASS= 0.9109383701500001E-30
_AMU2AU=  1822.888486217313    
_CLIGHT=  29979245800.00000    
_EV= 0.3674932217565494E-01
_KJOULE= 0.3808798847133432E-03
_KJOULE/MOL= 0.3808798847133432E-03
_CM= 0.4556335252912009E-05
_CM-1= 0.4556335252912009E-05
_DEB2SI= 0.3335640951981520E-29
_KCAL= 0.1593601437640628E-02
_KCAL/MOL= 0.1593601437640628E-02
_KELVIN= 0.3166811563455608E-05
_HERTZ= 0.1519829846057038E-15
_HZ= 0.1519829846057038E-15
_TOA= 0.5291772109030000    
_TOANG= 0.5291772109030000    
_TORAD= 0.1745329251994330E-01
_TOCM=  219474.6313631965    
_TODEBYE=  2.541746473194078    
_TOE= 0.4803204712570263E-09
_TOEV=  27.21138624598803    
_TOHERTZ=  6579683920501656.    
_TOHZ=  6579683920501656.    
_TOK=  315775.0248040668    
_TOKCAL=  627.5094740630558    
_TOKELVIN=  315775.0248040668    
_TOKJ=  2625.499639479825    
_TOKJOULE=  2625.499639479825    
_TOKG= 0.1660539066600000E-26
_ANG=  1.889726124625770    
_ANGSTROM=  1.889726124625770    
_RPAREF=  0.000000000000000    
_RPADISS=  0.000000000000000    
_IGNORE_UNDEF=  2.000000000000000    
_STRICTCHECK=  0.000000000000000    
!SEWARD=  0.000000000000000    
!MULTI=  0.000000000000000    
!DFMULTI=  0.000000000000000    
!NUMHESS=  0.000000000000000    
_SEW_ONEEL=  0.000000000000000    
_CPPDONE=FALSE
_DKROLL_DONE=  0.000000000000000    
_FNUC_DONE=  0.000000000000000    
_FOCKDONE=TRUE
_GRADONE=FALSE
_HESSDONE=TRUE
_INTDONE=TRUE
_SCFDONE=TRUE
_MODUL_BLOCK=FALSE
_MODUL_SLATER=TRUE
_MODUL_MRCC=FALSE
_MODUL_NBO6=FALSE
_MODUL_NECI=FALSE
_MODUL_AIMS=TRUE
_MODUL_HDF5=FALSE
_MODUL_GECCO=FALSE
_ISWINDOWS=FALSE
_MRCC_EXEC=
_FITC_AO_SAVED=FALSE
_FITC_MO_SAVED=FALSE
_LSTYP=SEWARD
_INTYP=INTS
_GEOMTYP=XYZ
_GRADTYP=ALASKA
_DIRECT=FALSE
_DKHO= -1.000000000000000    
_FNUC=  0.000000000000000    
_SYNCM=  0.000000000000000    
_BASIS=6-311G(D,P)
_ZCENTRE=MASS
_ZORIENT=  1.000000000000000    
_NELEC=  36.00000000000000    
!SPIN=  0.000000000000000    
_OPTCONV= 0.1576257635831305E-01
_QSDSTEP=  0.000000000000000    
_QSDIRC=  0.000000000000000    
_PROGRAM=FREQ
_CPUSTEP=  27.15000000000000    
_SYSSTEP=  1.060000000000000    
_WALLSTEP=  28.22000000000000    
!DFSCF=  0.000000000000000    
!SCSGRD=  0.000000000000000    
_NCEN=  12.00000000000000    
_CPUTOT=  58.45000000000000    
_DFTEXFAC=  1.000000000000000    
_DMX=-0.4089784657599629    
_DMY= 0.1598395699130343    
_DMZ=-0.9204292252957837    
_DMX_SCF=-0.4089784657599629    
_DMY_SCF= 0.1598395699130343    
_DMZ_SCF=-0.9204292252957837    
_FREQUENCIES= 0.5337314174984560E-04
_HOMO=  18.10000000000000    
_EHOMO=-0.4542593621647152    
_LUMO=  19.10000000000000    
_ELUMO= 0.1438538913713775    
_ENERGY= -230.1820526539824    
_ENERGY_METHOD=HF
_ENERGY_BASIS=6-311G(D,P)
_GEOMETRY_METHOD=HF
_GEOMETRY_BASIS=6-311G(D,P)
_ENUC=  132.7856421798064    
_GRADENERG= -230.1820516652481    
_GRADEXFAC=  9999.000000000000    
_GRADMETHOD=  1.000000000000000    
_NMRMETHOD=  0.000000000000000    
_NMRMAGNET=  0.000000000000000    
_VIRIAL=-0.4119822075264876E-03
!GRID_FREEZE= -1.000000000000000    
!NEESE_INDEX=  0.000000000000000    
_ITERATIONS=  11.00000000000000    
_LASTNELEC=  36.00000000000000    
_LASTSPIN=  0.000000000000000    
_LASTSYM=  1.000000000000000    
_MPP_PROG=  1.000000000000000    
_MSNSTATES=  0.000000000000000    
_RS2PHASE=  0.000000000000000    
_NPROC_MPP=  6.000000000000000    
_NPROC_SMP=  6.000000000000000    
_NUMSTEP=  0.000000000000000    
_OPTCONVMX= 0.8544349031113681E-02
_OPTCONVRMS= 0.2877839545281897E-02
_OPTGRAD= 0.2974449545751092E-03
_OPTGRADMX= 0.1372090676217601E-03
_OPTGRADRMS= 0.5430577041229559E-04
!GMAXLAST= 0.1372090676217601E-03
!DMAXLAST= 0.8544349031113681E-02
!DELAST= 0.2045535580919022E-05
_OPTSTEP=  13.00000000000000    
_ORBITAL=  2100.200000000000    
_PI=  3.141592653589793    
_SEIG_MIN= 0.3171269594148153E-02
_SEWPROP=TRUE
_STATUS=  1.000000000000000    
_SYSTOT=  3.350000000000000    
_VERSION=  2024001.000000000    
_WALLTOT=  62.01000000000000    
_ZPE= 0.1114877098026166    
_DATE=01-Oct-24
_LASTORB=0
_OUTPUT=/home/lme/decomposing-vibrations/test_calculations/hydrogen_bonded_clusters/C2H6O_H2O/ethanol_water.out
_PGROUP=C1
_TIME=21:41:23
_LIBMOL=/usr/local/molpro/molpro_2024.1.0_sockets/lib/
_VIGRDC=  0.000000000000000    
!VIBCNT=  0.000000000000000    
!SURFREC=  0.000000000000000    
!XSURFREC=  0.000000000000000    
!XPOLYREC=  0.000000000000000    
!ROTREC=  0.000000000000000    
!POLYREC=  0.000000000000000    
!DIPREC=  0.000000000000000    
!DIP4DREC=  0.000000000000000    
!DIPROT=  0.000000000000000    
!DIP4DROT=  0.000000000000000    
!PTREC=  0.000000000000000    
!PT4DREC=  0.000000000000000    
!VSCFREC=  0.000000000000000    
!VCIREC=  0.000000000000000    
!PVCIREC=  0.000000000000000    
!VMP2REC=  0.000000000000000    
!VMCSCFREC=  0.000000000000000    
!VMRCIREC=  0.000000000000000    
!VIBSTATEREC=  0.000000000000000    
!VIBSTATECNT=  0.000000000000000    
!VIBINFO=  0.000000000000000    
!GAREC=  0.000000000000000    
!SCFORB=  21002.00000000000    
!DEFCORE=  4.000000000000000    
!SCORE=  0.000000000000000    
!NEWMOL=  0.000000000000000    
!NEWSYM=  0.000000000000000    
_SLFILES=slscratch
_NGSSTO=  9.000000000000000    
_SIN=SIN
_COS=COS
_TAN=TAN
_ACOS=ACOS
_ASIN=ASIN
_ATAN=ATAN
_COSH=COSH
_SINH=SINH
_TANH=TANH
_ABS=ABS
_MOD=MOD
_ERF=ERF
_REFC=REFC
_ERFC=ERFC
_HYPOT=HYPOT
_J0=J0
_J1=J1
_JN=JN
_GAMMA=GAMMA
_LGAMMA=LGAMMA
_Y0=Y0
_Y1=Y1
_YN=YN
_EXP=EXP
_LOG=LOG
_LOG10=LOG10
_SQRT=SQRT
_INT=INT
_NINT=NINT
_MAX=MAX
_MIN=MIN
_COSMO=  0.000000000000000    
_COSMOIT=  0.000000000000000    
_COSMOES=  0.000000000000000    
_COSMOEDS=  0.000000000000000    
_COSMOEC=  0.000000000000000    
_COSMOEDCORR=  0.000000000000000    
_FEPSI=  1.000000000000000    
_SL_IsMM=  0.000000000000000    
_SL_NSYM=  1.000000000000000    
_SL_System_BitSw=  0.000000000000000    
_SL_Unique_atoms=  0.000000000000000    
_SL_GRAD=  0.000000000000000    
_SL_MAXUPD_Hess=  5.000000000000000    
_SL_N_PRINT_COD=  5.000000000000000    
_SL_PRINT_CODES=  0.000000000000000    
_SL_BasType=  0.000000000000000    
_SL_Energy_Pred=  0.000000000000000    
_SL_New_Coords=  0.000000000000000    
_SL_Total_Nuclea=  0.000000000000000    
_SL_Highest_Mltp=  0.000000000000000    
_SL_Ref_Geom=  0.000000000000000    
_SL_Symmetry_ope=  1.000000000000000    
_SL_agrad=  0.000000000000000    
_SL_GrdMax=  0.000000000000000    
_SL_GrdNorm=  0.000000000000000    
_SL_GrdRMS=  0.000000000000000    
_SL_Hss_Q=  0.000000000000000    
_SL_Hss_X=  0.000000000000000    
_SL_BMxOld=  0.000000000000000    
_SL_KtB=  0.000000000000000    
_SL_TROld=  0.000000000000000    
_SL_No_of_Intern=  0.000000000000000    
_SL_Hess=  0.000000000000000    
_SL_K=  0.000000000000000    
!LATTICE= -1.000000000000000    
!NEWLATTICE=  0.000000000000000    
!LATGRAD_VAR=FALSE
!SEW_LATTICE=  1.000000000000000    
!AIC_ONEEL=  0.000000000000000    
!LOCAL=  0.000000000000000    
!SAVEDOM= -1.000000000000000    
!RESTDOM= -1.000000000000000    
!SAVEDOM_HF= -1.000000000000000    
!RESTDOM_HF= -1.000000000000000    
!HESSREC=  5300.200000000000    
!FREQREC=  5400.200000000000    
!NMODREC=  5450.200000000000    
!GTASKS=  0.000000000000000    
!HTASKS=  0.000000000000000    
!SAVEDOM_EOM= -1.000000000000000    
!RESTDOM_EOM= -1.000000000000000    
!GRADSTATE= -1.000000000000000    
!DEBUG=  0.000000000000000    
!CFIT_CPHF=  0.000000000000000    
!RDOMAUX_CPHF=  0.000000000000000    
!THRAO_CPHF= 0.1000000000000000E-11
!THRMO_CPHF= 0.1000000000000000E-11
!THROV_CPHF= 0.1000000000000000E-13
!THRSW_CPHF= 0.1000000000000000E-11
!THRPROD_CPHF= 0.1000000000000000E-11
!THRAOPR_CPHF= 0.1000000000000000E-11
!CFIT_SCFGRD=  0.000000000000000    
!RDOMAUX_SCFGRD=  0.000000000000000    
!THRAO_SCFGRD= 0.1000000000000000E-11
!THRMO_SCFGRD= 0.1000000000000000E-11
!THROV_SCFGRD= 0.1000000000000000E-13
!THRSW_SCFGRD= 0.1000000000000000E-11
!THRPROD_SCFGRD= 0.1000000000000000E-11
!THRAOPR_SCFGRD= 0.1000000000000000E-11
!LOCFIT_SCF=  0.000000000000000    
!LOCFIT_MP2=  0.000000000000000    
_RIDOM=  0.000000000000000    
!CC2_METHOD=  0.000000000000000    
_BASIS2006=FALSE
_SVDDEL= -1.000000000000000    
_SVDDELA= -1.000000000000000    
_SVDDELP= -1.000000000000000    
_SVDDELF= -1.000000000000000    
_SVDDELS= -1.000000000000000    
_SVDDEL_ABS= -1.000000000000000    
_SVDDELA_ABS= -1.000000000000000    
_SVDDELP_ABS= -1.000000000000000    
_SVDDELF_ABS= -1.000000000000000    
_SVDDELS_ABS= -1.000000000000000    
_MAXBASIS=  0.000000000000000    
!OPT_CONICAL=  0.000000000000000    
!CLEARSP_JGRID=  0.000000000000000    
_GRDHYBR=  0.000000000000000    
_STATEGRAD=  1.000000000000000    
_4EXT_NDISKS=  1.000000000000000    
!EMBEDFLAG=  1.000000000000000    
!EMBED=FALSE
!EMBED_F12=FALSE
!EMBEDNUC=  0.000000000000000    
_EMBEDENERGY=  0.000000000000000    
!EMBED_DFC=FALSE
!NUM_VOIDS=  0.000000000000000    
_IBODY=  0.000000000000000    
_EMBE_CORR=  0.000000000000000    
!EMBED_PROJ=FALSE
!EMB_PROJ_ZMU=  1000000.000000000    
!CORRECTION_HF=  0.000000000000000    
!EMBED_AORB=  0.000000000000000    
!EMBED_NACORR=  0.000000000000000    
!EMBED_MP2=FALSE
!EMBED_TRUNC_PERTURBATION=FALSE
!EMBED_FROZEN=  0.000000000000000    
!EMBED_ACTIVE=  0.000000000000000    
_CHANGE_BASIS=FALSE
_RESTORE_BASIS=FALSE
_FIX_EMBED_GUESS=FALSE
_EMBED_SCF=FALSE
_NEOBAS=FALSE
_NEOOVE=FALSE
_PRINEO=FALSE
_HUZINAGA_T=FALSE
_HUZINAGA_F=FALSE
_HUZINAGA=FALSE
_HUZINAGA_CORRECT=FALSE
!FASTLATGRAD=  1.000000000000000    
!FASTVLAMBDA= -1.000000000000000    
!IFORCE= -1.000000000000000    
!USESYM= -1.000000000000000    
_SINDEX=  0.000000000000000    
_AVDOM_OSV=  0.000000000000000    
_AVDOM_PNO=  0.000000000000000    
_AVDOM_PNOCC=  0.000000000000000    
_AVDOM_TNO=  0.000000000000000    
_AVDOM_TNOIT=  0.000000000000000    
_AVDOM_PAO=  0.000000000000000    
_AVDOM_LMO=  0.000000000000000    
_CC2OSV_FLAG=  0.000000000000000    
_EOMCCSD_CONV=FALSE
_TMADC2_FLAG=FALSE
_PROPADC2_FLAG=FALSE
_LEN_VirQ=  0.000000000000000    
_GRDCC2LR_FLAG=FALSE
_GRDADC2_FLAG=FALSE
_RO_VGLOBAL=  0.000000000000000    
_OPT=FALSE
_FREQ=FALSE
_HESS=FALSE
_CMRCC_callName=EMPTY
_CMRCC_callCount=  0.000000000000000    
_GECCO_CIROOT=  1.000000000000000    
_SYM_CATION=  1.000000000000000    
_MON_A=FALSE
_MON_B=FALSE
_MAXGEOM=  100.0000000000000    
!MAXGEOM=  100.0000000000000    
_NCORE=  0.000000000000000    
_NLARGECORE=  0.000000000000000    
GX1=  1.100476773586883    
GY1=-0.2041333738636587    
GZ1= -1.297260717905526    
GX2=  1.584117384756021    
GY2=-0.3080612002085921    
GZ2=-0.3327510634532034    
GX3= 0.9945734805901228    
GY3= -1.192611053028066    
GZ3= -1.739342186694178    
GX4=  1.741421411911557    
GY4= 0.3834954625291154    
GZ4= -1.948442102473700    
GX5=-0.2516943751169576    
GY5= 0.4684654945768988    
GZ5= -1.137292925863196    
GX6=-0.1329667216971181    
GY6=  1.450004338201531    
GZ6=-0.6968302802038614    
GX7=-0.7365359443953960    
GY7= 0.5979882880842325    
GZ7= -2.102307864908056    
GX8= -1.104938161735751    
GY8=-0.2399034782437431    
GZ8=-0.2642441584505192    
GX9= -1.274360622459139    
GY9= -1.097578103153936    
GZ9=-0.6126466001693575    
GX10= 0.3480304175929104    
GY10= 0.1491915832209279E-01
GZ10=  2.285738682650678    
GX11=-0.1252423696200146E-01
GY11= 0.7435595920304215    
GZ11=  2.758606719203935    
GX12=-0.2573595948679407    
GY12=-0.1534911949191999    
GZ12=  1.578950642261344    
CX1=  2.079599708591012    
CY1=-0.3857561694981552    
CZ1= -2.451467469076853    
HX2=  2.993548006447306    
HY2=-0.5821512980177463    
HZ2=-0.6288083776045256    
HX3=  1.879471489131137    
HY3= -2.253708263424586    
HZ3= -3.286880369859702    
HX4=  3.290809536071963    
HY4= 0.7247013942167125    
HZ4= -3.682021943365313    
CX5=-0.4756334360798732    
CY5= 0.8852714835876978    
CZ5= -2.149172153355761    
HX6=-0.2512706876968883    
HY6=  2.740111078720133    
HZ6= -1.316818384931532    
HX7= -1.391851215849893    
HY7=  1.130034090213015    
HZ7= -3.972786094322978    
OX8= -2.088030510328024    
OY8=-0.4533518702257915    
OZ8=-0.4993490895036977    
HX9= -2.408192560455392    
HY9= -2.074122015347191    
HZ9= -1.157734285503194    
OX10= 0.6576821722897390    
OY10= 0.2819312323868672E-01
OZ10=  4.319420102672678    
HX11=-0.2366737777809772E-01
HY11=  1.405123986275967    
HZ11=  5.213011184847861    
HX12=-0.4863391498450519    
HY12=-0.2900563209388383    
HZ12=  2.983784278175900    
[Atoms] Angs
C     1    6         1.1004767736       -0.2041333739       -1.2972607179
H     2    1         1.5841173848       -0.3080612002       -0.3327510635
H     3    1         0.9945734806       -1.1926110530       -1.7393421867
H     4    1         1.7414214119        0.3834954625       -1.9484421025
C     5    6        -0.2516943751        0.4684654946       -1.1372929259
H     6    1        -0.1329667217        1.4500043382       -0.6968302802
H     7    1        -0.7365359444        0.5979882881       -2.1023078649
O     8    8        -1.1049381617       -0.2399034782       -0.2642441585
H     9    1        -1.2743606225       -1.0975781032       -0.6126466002
O    10    8         0.3480304176        0.0149191583        2.2857386827
H    11    1        -0.0125242370        0.7435595920        2.7586067192
H    12    1        -0.2573595949       -0.1534911949        1.5789506423
[GTO]
   1 0
 s    6  1.00
  0.4563240000D+04  0.1966650249D-02
  0.6820240000D+03  0.1523060193D-01
  0.1549730000D+03  0.7612690966D-01
  0.4445530000D+02  0.2608010331D+00
  0.1302900000D+02  0.6164620782D+00
  0.1827730000D+01  0.2210060280D+00
 s    3  1.00
  0.2096420000D+02  0.1146600807D+00
  0.4803310000D+01  0.9199996477D+00
  0.1459330000D+01 -0.3030682134D-02
 s    1  1.00
  0.4834560000D+00  0.1000000000D+01
 s    1  1.00
  0.1455850000D+00  0.1000000000D+01
 p    3  1.00
  0.2096420000D+02  0.4024869267D-01
  0.4803310000D+01  0.2375939567D+00
  0.1459330000D+01  0.8158538515D+00
 p    1  1.00
  0.4834560000D+00  0.1000000000D+01
 p    1  1.00
  0.1455850000D+00  0.1000000000D+01
 d    1  1.00
  0.6260000000D+00  0.1000000000D+01
  
   2 0
 s    3  1.00
  0.3386500000D+02  0.2549381454D-01
  0.5094790000D+01  0.1903731086D+00
  0.1158790000D+01  0.8521614860D+00
 s    1  1.00
  0.3258400000D+00  0.1000000000D+01
 s    1  1.00
  0.1027410000D+00  0.1000000000D+01
 p    1  1.00
  0.7500000000D+00  0.1000000000D+01
  
   3 0
 s    3  1.00
  0.3386500000D+02  0.2549381454D-01
  0.5094790000D+01  0.1903731086D+00
  0.1158790000D+01  0.8521614860D+00
 s    1  1.00
  0.3258400000D+00  0.1000000000D+01
 s    1  1.00
  0.1027410000D+00  0.1000000000D+01
 p    1  1.00
  0.7500000000D+00  0.1000000000D+01
  
   4 0
 s    3  1.00
  0.3386500000D+02  0.2549381454D-01
  0.5094790000D+01  0.1903731086D+00
  0.1158790000D+01  0.8521614860D+00
 s    1  1.00
  0.3258400000D+00  0.1000000000D+01
 s    1  1.00
  0.1027410000D+00  0.1000000000D+01
 p    1  1.00
  0.7500000000D+00  0.1000000000D+01
  
   5 0
 s    6  1.00
  0.4563240000D+04  0.1966650249D-02
  0.6820240000D+03  0.1523060193D-01
  0.1549730000D+03  0.7612690966D-01
  0.4445530000D+02  0.2608010331D+00
  0.1302900000D+02  0.6164620782D+00
  0.1827730000D+01  0.2210060280D+00
 s    3  1.00
  0.2096420000D+02  0.1146600807D+00
  0.4803310000D+01  0.9199996477D+00
  0.1459330000D+01 -0.3030682134D-02
 s    1  1.00
  0.4834560000D+00  0.1000000000D+01
 s    1  1.00
  0.1455850000D+00  0.1000000000D+01
 p    3  1.00
  0.2096420000D+02  0.4024869267D-01
  0.4803310000D+01  0.2375939567D+00
  0.1459330000D+01  0.8158538515D+00
 p    1  1.00
  0.4834560000D+00  0.1000000000D+01
 p    1  1.00
  0.1455850000D+00  0.1000000000D+01
 d    1  1.00
  0.6260000000D+00  0.1000000000D+01
  
   6 0
 s    3  1.00
  0.3386500000D+02  0.2549381454D-01
  0.5094790000D+01  0.1903731086D+00
  0.1158790000D+01  0.8521614860D+00
 s    1  1.00
  0.3258400000D+00  0.1000000000D+01
 s    1  1.00
  0.1027410000D+00  0.1000000000D+01
 p    1  1.00
  0.7500000000D+00  0.1000000000D+01
  
   7 0
 s    3  1.00
  0.3386500000D+02  0.2549381454D-01
  0.5094790000D+01  0.1903731086D+00
  0.1158790000D+01  0.8521614860D+00
 s    1  1.00
  0.3258400000D+00  0.1000000000D+01
 s    1  1.00
  0.1027410000D+00  0.1000000000D+01
 p    1  1.00
  0.7500000000D+00  0.1000000000D+01
  
   8 0
 s    6  1.00
  0.8588500000D+04  0.1895150083D-02
  0.1297230000D+04  0.1438590063D-01
  0.2992960000D+03  0.7073200310D-01
  0.8737710000D+02  0.2400010105D+00
  0.2567890000D+02  0.5947970261D+00
  0.3740040000D+01  0.2808020123D+00
 s    3  1.00
  0.4211750000D+02  0.1138890124D+00
  0.9628370000D+01  0.9208111006D+00
  0.2853320000D+01 -0.3274470358D-02
 s    1  1.00
  0.9056610000D+00  0.1000000000D+01
 s    1  1.00
  0.2556110000D+00  0.1000000000D+01
 p    3  1.00
  0.4211750000D+02  0.3651139738D-01
  0.9628370000D+01  0.2371529830D+00
  0.2853320000D+01  0.8197019412D+00
 p    1  1.00
  0.9056610000D+00  0.1000000000D+01
 p    1  1.00
  0.2556110000D+00  0.1000000000D+01
 d    1  1.00
  0.1292000000D+01  0.1000000000D+01
  
   9 0
 s    3  1.00
  0.3386500000D+02  0.2549381454D-01
  0.5094790000D+01  0.1903731086D+00
  0.1158790000D+01  0.8521614860D+00
 s    1  1.00
  0.3258400000D+00  0.1000000000D+01
 s    1  1.00
  0.1027410000D+00  0.1000000000D+01
 p    1  1.00
  0.7500000000D+00  0.1000000000D+01
  
  10 0
 s    6  1.00
  0.8588500000D+04  0.1895150083D-02
  0.1297230000D+04  0.1438590063D-01
  0.2992960000D+03  0.7073200310D-01
  0.8737710000D+02  0.2400010105D+00
  0.2567890000D+02  0.5947970261D+00
  0.3740040000D+01  0.2808020123D+00
 s    3  1.00
  0.4211750000D+02  0.1138890124D+00
  0.9628370000D+01  0.9208111006D+00
  0.2853320000D+01 -0.3274470358D-02
 s    1  1.00
  0.9056610000D+00  0.1000000000D+01
 s    1  1.00
  0.2556110000D+00  0.1000000000D+01
 p    3  1.00
  0.4211750000D+02  0.3651139738D-01
  0.9628370000D+01  0.2371529830D+00
  0.2853320000D+01  0.8197019412D+00
 p    1  1.00
  0.9056610000D+00  0.1000000000D+01
 p    1  1.00
  0.2556110000D+00  0.1000000000D+01
 d    1  1.00
  0.1292000000D+01  0.1000000000D+01
  
  11 0
 s    3  1.00
  0.3386500000D+02  0.2549381454D-01
  0.5094790000D+01  0.1903731086D+00
  0.1158790000D+01  0.8521614860D+00
 s    1  1.00
  0.3258400000D+00  0.1000000000D+01
 s    1  1.00
  0.1027410000D+00  0.1000000000D+01
 p    1  1.00
  0.7500000000D+00  0.1000000000D+01
  
  12 0
 s    3  1.00
  0.3386500000D+02  0.2549381454D-01
  0.5094790000D+01  0.1903731086D+00
  0.1158790000D+01  0.8521614860D+00
 s    1  1.00
  0.3258400000D+00  0.1000000000D+01
 s    1  1.00
  0.1027410000D+00  0.1000000000D+01
 p    1  1.00
  0.7500000000D+00  0.1000000000D+01


[MO]
 Sym=      1.1
 Ene=     -20.5622
 Spin= Alpha
 Occup=    2.000000
1 0.000001203473457
2 0.000000924296168
3 -0.000009900871059
4 0.000041377731442
5 -0.000000167809589
6 -0.000001031545500
7 0.000002078510650
8 0.000024198977730
9 -0.000005253719020
10 -0.000009717761394
11 -0.000015368483348
12 -0.000042889761195
13 -0.000058230330598
14 -0.000004237353312
15 0.000002773009689
16 0.000001464343624
17 -0.000007154993815
18 0.000017333568834
19 -0.000003193728177
20 0.000005743068388
21 -0.000034534468780
22 -0.000001488887950
23 0.000019962046551
24 -0.000002898546835
25 0.000006742435846
26 0.000008353952862
27 -0.000052755350567
28 -0.000046649043665
29 0.000005485183412
30 -0.000014852333075
31 -0.000005396727184
32 0.000005086047058
33 -0.000012628176161
34 0.000038089851424
35 -0.000002556489168
36 0.000005424505119
37 0.000006951966680
38 -0.000002727160633
39 -0.000028449318209
40 0.000075153185939
41 0.000528400952812
42 -0.000018274520131
43 -0.000006915263313
44 0.000024777844918
45 -0.000150090396965
46 -0.000150314992180
47 0.000128642806870
48 -0.000125800718612
49 -0.000000928293572
50 0.000278670202375
51 0.000006111359958
52 0.000000625298563
53 -0.000006736658522
54 0.000075602914015
55 -0.000069587455374
56 -0.000082697202024
57 0.000026271235577
58 -0.000131957670021
59 -0.000060537023073
60 0.000000031874293
61 -0.000008298917390
62 -0.000013339311307
63 0.000006620377619
64 -0.000032288724626
65 0.000008251989566
66 0.000026931143811
67 0.000000768544707
68 -0.000012988943390
69 0.55144037959231
70 0.47165908402795
71 0.005686834697330
72 -0.000885092615344
73 0.000613887357125
74 -0.000656555182466
75 -0.001365593415071
76 -0.000196452399096
77 0.000255596729628
78 0.000531618683487
79 -0.000149153224030
80 -0.000215918164624
81 -0.000056696875780
82 0.000050027014710
83 -0.000054946920839
84 0.000004919906129
85 -0.000112112055762
86 0.000095310412909
87 0.000020199084990
88 0.000203554086021
89 0.000085766230972
90 0.000042344030990
91 0.000054250399472
92 0.000072672945975
93 -0.000005038175728
94 -0.000029995296720
95 -0.000031661467481
96 0.000052078186018
97 -0.000202382684302
98 0.000003632100959
99 0.000005761531137
100 0.000007898614288
101 -0.000011461260420
102 -0.000023186168697
103 -0.000029806636135
104 0.000078135254168
105 0.000007580321688
106 0.000087022190448
107 0.000004203502210
108 -0.000001763232871
109 -0.000002440269339
110 0.000008600701167
111 0.000000572777904
112 -0.000004304306271
113 0.000000871161653
114 0.000064840575938
115 -0.000059193178768
116 0.000002244038579
117 -0.000016225723370
118 -0.000018046316126
119 -0.000033665178532
120 0.000162008130271
121 0.000124150562008
122 -0.000013425672480
123 0.000005661303791
124 -0.000036221959289
 Sym=      2.1
 Ene=     -20.5164
 Spin= Alpha
 Occup=    2.000000
1 0.000000172045960
2 -0.000000891021486
3 0.000010238948299
4 -0.000042180742838
5 -0.000002247971240
6 0.000000742620350
7 -0.000004629533597
8 0.000007389515332
9 -0.000000293705492
10 0.000023301557194
11 -0.000036178906386
12 0.000012204168228
13 -0.000027436445713
14 0.000002328075123
15 -0.000004199597036
16 0.000001871521914
17 -0.000002613757156
18 0.000003072482949
19 -0.000001143400541
20 0.000008187379378
21 -0.000041413813856
22 0.000094090492325
23 0.000004867896839
24 -0.000000403176993
25 -0.000001502919729
26 -0.000003059158094
27 0.000022472238900
28 -0.000009275824586
29 0.000000754375399
30 0.000005870742355
31 0.000003069949603
32 -0.000001787457898
33 0.000017714020696
34 -0.000014606804083
35 -0.000000346639315
36 -0.000004242799726
37 0.000003539384993
38 0.000000162952018
39 -0.000000613237810
40 0.000005710335505
41 -0.000052744562228
42 -0.000001136412548
43 0.000000246931614
44 -0.000001587983882
45 0.000006163563621
46 -0.000000540696852
47 0.000006079004304
48 0.000009450443517
49 0.000028448234140
50 -0.000007948363244
51 -0.000003877554673
52 0.000001423375796
53 0.000002454178877
54 -0.000003788127314
55 -0.000002713717674
56 0.000000792970302
57 -0.000001713622553
58 0.000008602761804
59 -0.000039350102165
60 -0.000001577507934
61 0.000003452018122
62 -0.000002130981863
63 0.000003041397265
64 0.000001547658415
65 0.000014190398756
66 -0.000001279358571
67 -0.000001435317381
68 0.000003040156210
69 0.000030659956563
70 0.000025126954920
71 0.000010145981387
72 -0.000023387384553
73 -0.000001263139375
74 -0.000001060919402
75 -0.000008889236060
76 0.000002238918003
77 0.000004845959618
78 0.000025805516661
79 -0.000011163958725
80 0.000007475037952
81 -0.000084679048745
82 0.000001136120957
83 -0.000000881321770
84 -0.000000254799187
85 -0.000000487758699
86 -0.000003668491949
87 -0.000000218527771
88 -0.000006154029352
89 0.000028200278715
90 -0.000040679119851
91 0.000002198987120
92 0.000000578382184
93 0.000010302205865
94 0.55142808751724
95 0.47167121482842
96 0.005610022999363
97 -0.000553837690215
98 -0.001422661890882
99 0.000885176074934
100 -0.000289600062249
101 0.000481211700152
102 -0.000319922324589
103 0.000076031933054
104 -0.000044943208956
105 0.000071383427544
106 0.000041537605428
107 0.000016144372541
108 -0.000002090994482
109 -0.000014053378059
110 0.000040773326180
111 -0.000039162459681
112 -0.000097234170269
113 0.000208004337772
114 0.000096843387123
115 0.000050163798572
116 -0.000000249116800
117 -0.000050971957421
118 -0.000056733831929
119 0.000196227677590
120 0.000106357108308
121 0.000219989955888
122 0.000021537086986
123 0.000036544074598
124 0.000049865033128
 Sym=      3.1
 Ene=     -11.2802
 Spin= Alpha
 Occup=    2.000000
1 0.002790759446268
2 0.002258400327710
3 0.000240433835876
4 0.000651774029528
5 -0.000117836405966
6 0.000069780676223
7 0.000005596224239
8 -0.000253692585097
9 0.000090186935600
10 0.000051309195840
11 -0.000274546479257
12 0.000166381141345
13 0.000040534348444
14 0.000096097675581
15 -0.000044268698986
16 -0.000051828976595
17 -0.000059614799815
18 -0.000039305059362
19 0.000013976705604
20 -0.000001652659942
21 -0.000019409404663
22 0.000010313373844
23 -0.000011895939578
24 0.000004312337190
25 -0.000005942194740
26 -0.000002104601810
27 -0.000012861624411
28 0.000025231068168
29 -0.000004865240636
30 0.000011268435385
31 0.000003808455254
32 0.000002407820093
33 -0.000013626971737
34 0.000002192468534
35 -0.000025155502718
36 0.000006056151309
37 0.000004797170323
38 0.56346177028612
39 0.46655559774555
40 0.004104125631697
41 -0.001995627255566
42 -0.000623657892928
43 -0.000605554303820
44 0.000612187244844
45 0.000419589439021
46 0.000485644292295
47 -0.000456407517043
48 -0.000283676181764
49 0.000029102707910
50 0.000028118410415
51 -0.000068232340253
52 0.000059472567846
53 0.000008759772406
54 -0.000114081383532
55 0.000202753227748
56 0.000179988251777
57 0.000326533294135
58 0.000195724518797
59 0.000302639883260
60 -0.000005211738939
61 -0.000017279615509
62 0.000038426517717
63 0.000329731989072
64 0.000190108406947
65 0.000262771904829
66 -0.000013514855703
67 -0.000035564072318
68 0.000015703501568
69 -0.000070122102998
70 -0.000123722155060
71 0.000254917661438
72 0.000547389741161
73 0.000062979034237
74 0.000045383295315
75 -0.000068066943805
76 0.000326560816435
77 0.000288796828106
78 -0.000333942160876
79 0.000191395481831
80 0.000108976641564
81 -0.000150460050997
82 0.000021835703996
83 -0.000052298986501
84 0.000030463282506
85 0.000109118504146
86 -0.000159184512860
87 -0.000126699765082
88 -0.000019549851628
89 0.000038030779910
90 -0.000008000793148
91 0.000005333617918
92 0.000045720320517
93 0.000012551836307
94 0.000000030420918
95 0.000000489493891
96 -0.000002958014450
97 -0.000004034617124
98 -0.000000896386668
99 -0.000000069781574
100 -0.000001705801383
101 0.000003820856125
102 0.000000292569030
103 0.000008887986890
104 -0.000001024119875
105 0.000007078615213
106 0.000003137167276
107 -0.000000331484524
108 0.000002268964629
109 -0.000001937480105
110 -0.000001444416370
111 -0.000002895534762
112 0.000000072891879
113 -0.000000728085515
114 -0.000002466255444
115 -0.000017909120981
116 -0.000001137697101
117 0.000002346420561
118 0.000004705466565
119 0.000001951154305
120 -0.000001603197369
121 0.000021325415769
122 0.000011289854087
123 0.000003131381225
124 0.000010069025886
 Sym=      4.1
 Ene=     -11.2170
 Spin= Alpha
 Occup=    2.000000
1 0.56331139442525
2 0.46652873215359
3 0.004552939996560
4 -0.001788473136488
5 -0.000019243324704
6 -0.000017421500258
7 -0.000132796768664
8 0.000080111248436
9 -0.000013064227550
10 0.000108380795235
11 0.000196778439739
12 -0.000089498763245
13 -0.000088632590696
14 -0.000047792026757
15 -0.000013101807314
16 0.000060893834071
17 0.000043231150583
18 0.000027712491427
19 -0.000017375522090
20 0.000348475109050
21 0.000136687145486
22 0.000303520870060
23 -0.000007208686265
24 0.000003817941474
25 0.000015530772041
26 0.000355953438596
27 0.000220160414497
28 0.000210829846046
29 -0.000020232373629
30 0.000029649007087
31 0.000011251382110
32 0.000356470484329
33 0.000193724402233
34 0.000203923563437
35 -0.000027801300626
36 0.000001911666089
37 0.000008031920194
38 -0.002890394341949
39 -0.002453679447721
40 0.000230161956652
41 0.000607463403729
42 0.000126029618635
43 -0.000069338013262
44 -0.000009800797752
45 0.000272162936080
46 -0.000120826690332
47 -0.000044559879028
48 0.000252844483128
49 -0.000126697476592
50 -0.000007878587193
51 0.000087483802356
52 -0.000023236006969
53 -0.000064247795387
54 -0.000094521762074
55 -0.000023683452940
56 0.000022986492795
57 -0.000001137185585
58 -0.000051651950916
59 0.000021846930836
60 0.000008480043097
61 -0.000004076077176
62 -0.000001360822190
63 -0.000002194014034
64 -0.000035682789691
65 0.000012650317658
66 0.000006344928862
67 -0.000002469203371
68 0.000002345252754
69 0.000002613695634
70 0.000005158890879
71 -0.000025915213332
72 0.000030694090959
73 -0.000007074157218
74 -0.000000432213019
75 0.000004356465632
76 -0.000024176394859
77 0.000007533270297
78 -0.000001598208143
79 0.000006961417279
80 -0.000028640769398
81 -0.000021323163580
82 -0.000000215677358
83 0.000002020290922
84 -0.000001804613564
85 0.000003546888351
86 -0.000004769970669
87 0.000000705416039
88 -0.000001851227997
89 -0.000060765702515
90 0.000017621523193
91 -0.000001922648702
92 -0.000010985973158
93 0.000000552075721
94 0.000000116979912
95 -0.000000170452603
96 0.000004385386338
97 -0.000019793135399
98 -0.000002943993185
99 0.000000203128636
100 0.000001534161164
101 0.000009927808735
102 -0.000001458371060
103 -0.000002812485632
104 -0.000014801532725
105 0.000002584756704
106 0.000022008764596
107 0.000000014096704
108 0.000001068424461
109 -0.000001082521166
110 -0.000000502929502
111 -0.000001500910504
112 -0.000000796282214
113 -0.000002155663218
114 0.000007346237987
115 -0.000014222477808
116 0.000001879813753
117 0.000000796347954
118 -0.000003004208171
119 0.000003913568006
120 -0.000000571787396
121 -0.000003901668298
122 0.000004522247640
123 0.000000598846160
124 0.000007820798266