 Entering Gaussian System, Link 0=g16
 Input=c2h6_s.com
 Output=c2h6_s.log
 Initial command:
 /usr/local/g16/l1.exe "/scratch/ddi/Gau-3787037.inp" -scrdir="/scratch/ddi/"
 Entering Link 1 = /usr/local/g16/l1.exe PID=   3787039.
  
 Copyright (c) 1988,1990,1992,1993,1995,1998,2003,2009,2016,
            Gaussian, Inc.  All Rights Reserved.
  
 This is part of the Gaussian(R) 16 program.  It is based on
 the Gaussian(R) 09 system (copyright 2009, Gaussian, Inc.),
 the Gaussian(R) 03 system (copyright 2003, Gaussian, Inc.),
 the Gaussian(R) 98 system (copyright 1998, Gaussian, Inc.),
 the Gaussian(R) 94 system (copyright 1995, Gaussian, Inc.),
 the Gaussian 92(TM) system (copyright 1992, Gaussian, Inc.),
 the Gaussian 90(TM) system (copyright 1990, Gaussian, Inc.),
 the Gaussian 88(TM) system (copyright 1988, Gaussian, Inc.),
 the Gaussian 86(TM) system (copyright 1986, Carnegie Mellon
 University), and the Gaussian 82(TM) system (copyright 1983,
 Carnegie Mellon University). Gaussian is a federally registered
 trademark of Gaussian, Inc.
  
 This software contains proprietary and confidential information,
 including trade secrets, belonging to Gaussian, Inc.
  
 This software is provided under written license and may be
 used, copied, transmitted, or stored only in accord with that
 written license.
  
 The following legend is applicable only to US Government
 contracts under FAR:
  
                    RESTRICTED RIGHTS LEGEND
  
 Use, reproduction and disclosure by the US Government is
 subject to restrictions as set forth in subparagraphs (a)
 and (c) of the Commercial Computer Software - Restricted
 Rights clause in FAR 52.227-19.
  
 Gaussian, Inc.
 340 Quinnipiac St., Bldg. 40, Wallingford CT 06492
  
  
 ---------------------------------------------------------------
 Warning -- This program may not be used in any manner that
 competes with the business of Gaussian, Inc. or will provide
 assistance to any competitor of Gaussian, Inc.  The licensee
 of this program is prohibited from giving any competitor of
 Gaussian, Inc. access to this program.  By using this program,
 the user acknowledges that Gaussian, Inc. is engaged in the
 business of creating and licensing software in the field of
 computational chemistry and represents and warrants to the
 licensee that it is not a competitor of Gaussian, Inc. and that
 it will not use this program in any manner prohibited above.
 ---------------------------------------------------------------
  

 Cite this work as:
 Gaussian 16, Revision A.03,
 M. J. Frisch, G. W. Trucks, H. B. Schlegel, G. E. Scuseria, 
 M. A. Robb, J. R. Cheeseman, G. Scalmani, V. Barone, 
 G. A. Petersson, H. Nakatsuji, X. Li, M. Caricato, A. V. Marenich, 
 J. Bloino, B. G. Janesko, R. Gomperts, B. Mennucci, H. P. Hratchian, 
 J. V. Ortiz, A. F. Izmaylov, J. L. Sonnenberg, D. Williams-Young, 
 F. Ding, F. Lipparini, F. Egidi, J. Goings, B. Peng, A. Petrone, 
 T. Henderson, D. Ranasinghe, V. G. Zakrzewski, J. Gao, N. Rega, 
 G. Zheng, W. Liang, M. Hada, M. Ehara, K. Toyota, R. Fukuda, 
 J. Hasegawa, M. Ishida, T. Nakajima, Y. Honda, O. Kitao, H. Nakai, 
 T. Vreven, K. Throssell, J. A. Montgomery, Jr., J. E. Peralta, 
 F. Ogliaro, M. J. Bearpark, J. J. Heyd, E. N. Brothers, K. N. Kudin, 
 V. N. Staroverov, T. A. Keith, R. Kobayashi, J. Normand, 
 K. Raghavachari, A. P. Rendell, J. C. Burant, S. S. Iyengar, 
 J. Tomasi, M. Cossi, J. M. Millam, M. Klene, C. Adamo, R. Cammi, 
 J. W. Ochterski, R. L. Martin, K. Morokuma, O. Farkas, 
 J. B. Foresman, and D. J. Fox, Gaussian, Inc., Wallingford CT, 2016.
 
 ******************************************
 Gaussian 16:  ES64L-G16RevA.03 25-Dec-2016
                10-Oct-2022 
 ******************************************
 %nprocshared=12
 Will use up to   12 processors via shared memory.
 %chk=c2h6_s.chk
 -------------------------------------------------------------------
 #p opt=(tight,modredundant) freq hf/6-311++g(d,p) geom=connectivity
 -------------------------------------------------------------------
 1/7=10,18=120,19=15,38=1,57=2/1,3;
 2/9=110,12=2,17=6,18=5,40=1/2;
 3/5=4,6=6,7=1111,11=9,25=1,30=1,71=1/1,2,3;
 4//1;
 5/5=2,38=5/2;
 6/7=2,8=2,9=2,10=2,28=1/1;
 7//1,2,3,16;
 1/7=10,18=20,19=15/3(2);
 2/9=110/2;
 99//99;
 2/9=110/2;
 3/5=4,6=6,7=1111,11=9,25=1,30=1,71=1/1,2,3;
 4/5=5,16=3,69=1/1;
 5/5=2,38=5/2;
 7//1,2,3,16;
 1/7=10,18=20,19=15/3(-5);
 2/9=110/2;
 6/7=2,8=2,9=2,10=2,19=2,28=1/1;
 99/9=1/99;
 Leave Link    1 at Mon Oct 10 14:39:51 2022, MaxMem=           0 cpu:               0.2 elap:               0.0
 (Enter /usr/local/g16/l101.exe)
 -------------------
 Title Card Required
 -------------------
 Symbolic Z-matrix:
 Charge =  0 Multiplicity = 1
 C
 H                    1    B1
 H                    1    B2       2    A1
 H                    1    B3       3    A2       2    D1       0
 C                    1    B4       4    A3       3    D2       0
 H                    5    B5       1    A4       4    D3       0
 H                    5    B6       1    A5       4    D4       0
 H                    5    B7       1    A6       4    D5       0
       Variables:
  B1                    1.07                     
  B2                    1.07                     
  B3                    1.07                     
  B4                    1.54                     
  B5                    1.07                     
  B6                    1.07                     
  B7                    1.07                     
  A1                  109.4712                   
  A2                  109.47122                  
  A3                  109.47122                  
  A4                  109.4712                   
  A5                  109.4712                   
  A6                  109.47123                  
  D1                 -120.                       
  D2                  120.00003                  
  D3                 -120.00001                  
  D4                    0.                       
  D5                  120.                       
 
     6 tetrahedral angles replaced.
 The following ModRedundant input section has been read:
 D       2       1       5       8 F                                           
 
 ITRead=  0  0  0  0  0  0  0  0
 MicOpt= -1 -1 -1 -1 -1 -1 -1 -1
 NAtoms=      8 NQM=        8 NQMF=       0 NMMI=      0 NMMIF=      0
                NMic=       0 NMicF=      0.
                    Isotopes and Nuclear Properties:
 (Nuclear quadrupole moments (NQMom) in fm**2, nuclear magnetic moments (NMagM)
  in nuclear magnetons)

  Atom         1           2           3           4           5           6           7           8
 IAtWgt=          12           1           1           1          12           1           1           1
 AtmWgt=  12.0000000   1.0078250   1.0078250   1.0078250  12.0000000   1.0078250   1.0078250   1.0078250
 NucSpn=           0           1           1           1           0           1           1           1
 AtZEff=  -0.0000000  -0.0000000  -0.0000000  -0.0000000  -0.0000000  -0.0000000  -0.0000000  -0.0000000
 NQMom=    0.0000000   0.0000000   0.0000000   0.0000000   0.0000000   0.0000000   0.0000000   0.0000000
 NMagM=    0.0000000   2.7928460   2.7928460   2.7928460   0.0000000   2.7928460   2.7928460   2.7928460
 AtZNuc=   6.0000000   1.0000000   1.0000000   1.0000000   6.0000000   1.0000000   1.0000000   1.0000000
 Leave Link  101 at Mon Oct 10 14:39:51 2022, MaxMem=   104857600 cpu:               0.6 elap:               0.1
 (Enter /usr/local/g16/l103.exe)

 GradGradGradGradGradGradGradGradGradGradGradGradGradGradGradGradGradGrad
 Berny optimization.
 Initialization pass.
                           ----------------------------
                           !    Initial Parameters    !
                           ! (Angstroms and Degrees)  !
 --------------------------                            --------------------------
 ! Name  Definition              Value          Derivative Info.                !
 --------------------------------------------------------------------------------
 ! R1    R(1,2)                  1.07           estimate D2E/DX2                !
 ! R2    R(1,3)                  1.07           estimate D2E/DX2                !
 ! R3    R(1,4)                  1.07           estimate D2E/DX2                !
 ! R4    R(1,5)                  1.54           estimate D2E/DX2                !
 ! R5    R(5,6)                  1.07           estimate D2E/DX2                !
 ! R6    R(5,7)                  1.07           estimate D2E/DX2                !
 ! R7    R(5,8)                  1.07           estimate D2E/DX2                !
 ! A1    A(2,1,3)              109.4712         estimate D2E/DX2                !
 ! A2    A(2,1,4)              109.4712         estimate D2E/DX2                !
 ! A3    A(2,1,5)              109.4712         estimate D2E/DX2                !
 ! A4    A(3,1,4)              109.4712         estimate D2E/DX2                !
 ! A5    A(3,1,5)              109.4712         estimate D2E/DX2                !
 ! A6    A(4,1,5)              109.4712         estimate D2E/DX2                !
 ! A7    A(1,5,6)              109.4712         estimate D2E/DX2                !
 ! A8    A(1,5,7)              109.4712         estimate D2E/DX2                !
 ! A9    A(1,5,8)              109.4712         estimate D2E/DX2                !
 ! A10   A(6,5,7)              109.4712         estimate D2E/DX2                !
 ! A11   A(6,5,8)              109.4712         estimate D2E/DX2                !
 ! A12   A(7,5,8)              109.4712         estimate D2E/DX2                !
 ! D1    D(2,1,5,6)            120.0            estimate D2E/DX2                !
 ! D2    D(2,1,5,7)           -120.0            estimate D2E/DX2                !
 ! D3    D(2,1,5,8)              0.0            Frozen                          !
 ! D4    D(3,1,5,6)              0.0            estimate D2E/DX2                !
 ! D5    D(3,1,5,7)            120.0            estimate D2E/DX2                !
 ! D6    D(3,1,5,8)           -120.0            estimate D2E/DX2                !
 ! D7    D(4,1,5,6)           -120.0            estimate D2E/DX2                !
 ! D8    D(4,1,5,7)              0.0            estimate D2E/DX2                !
 ! D9    D(4,1,5,8)            120.0            estimate D2E/DX2                !
 --------------------------------------------------------------------------------
 Trust Radius=3.00D-01 FncErr=1.00D-07 GrdErr=1.00D-07 EigMax=2.50D+02 EigMin=1.00D-04
 Number of steps in this run=     38 maximum allowed number of steps=    100.
 GradGradGradGradGradGradGradGradGradGradGradGradGradGradGradGradGradGrad

 Leave Link  103 at Mon Oct 10 14:39:51 2022, MaxMem=   104857600 cpu:               0.1 elap:               0.0
 (Enter /usr/local/g16/l202.exe)
                          Input orientation:                          
 ---------------------------------------------------------------------
 Center     Atomic      Atomic             Coordinates (Angstroms)
 Number     Number       Type             X           Y           Z
 ---------------------------------------------------------------------
      1          6           0        0.000000    0.000000    0.000000
      2          1           0        0.000000    0.000000    1.070000
      3          1           0        1.008806    0.000000   -0.356667
      4          1           0       -0.504403   -0.873651   -0.356667
      5          6           0       -0.725963    1.257405   -0.513333
      6          1           0       -0.053427    1.839839   -1.107777
      7          1           0       -1.566635    0.966188   -1.107777
      8          1           0       -1.062232    1.839839    0.318890
 ---------------------------------------------------------------------
                    Distance matrix (angstroms):
                    1          2          3          4          5
     1  C    0.000000
     2  H    1.070000   0.000000
     3  H    1.070000   1.747303   0.000000
     4  H    1.070000   1.747303   1.747303   0.000000
     5  C    1.540000   2.148263   2.148263   2.148263   0.000000
     6  H    2.148263   2.851417   2.253334   2.851417   1.070000
     7  H    2.148263   2.851416   2.851417   2.253333   1.070000
     8  H    2.148263   2.253333   2.851417   2.851417   1.070000
                    6          7          8
     6  H    0.000000
     7  H    1.747303   0.000000
     8  H    1.747303   1.747303   0.000000
 This structure is nearly, but not quite of a higher symmetry.
 Consider Symm=Loose if the higher symmetry is desired.
 Stoichiometry    C2H6
 Framework group  C1[X(C2H6)]
 Deg. of freedom    18
 Full point group                 C1      NOp   1
 Largest Abelian subgroup         C1      NOp   1
 Largest concise Abelian subgroup C1      NOp   1
                         Standard orientation:                         
 ---------------------------------------------------------------------
 Center     Atomic      Atomic             Coordinates (Angstroms)
 Number     Number       Type             X           Y           Z
 ---------------------------------------------------------------------
      1          6           0        0.314413   -0.140643   -0.688668
      2          1           0       -0.413516   -0.596707   -1.326654
      3          1           0        1.149159   -0.799755   -0.571746
      4          1           0        0.644507    0.779093   -1.124586
      5          6           0       -0.314413    0.140643    0.688668
      6          1           0        0.229059   -0.388176    1.443578
      7          1           0       -0.275594    1.190672    0.890738
      8          1           0       -1.333615   -0.185127    0.688669
 ---------------------------------------------------------------------
 Rotational constants (GHZ):          82.1231828          20.2293848          20.2293846
 Leave Link  202 at Mon Oct 10 14:39:51 2022, MaxMem=   104857600 cpu:               0.0 elap:               0.0
 (Enter /usr/local/g16/l301.exe)
 Standard basis: 6-311++G(d,p) (5D, 7F)
 Ernie: Thresh=  0.10000D-02 Tol=  0.10000D-05 Strict=F.
 There are    88 symmetry adapted cartesian basis functions of A   symmetry.
 There are    86 symmetry adapted basis functions of A   symmetry.
    86 basis functions,   126 primitive gaussians,    88 cartesian basis functions
     9 alpha electrons        9 beta electrons
       nuclear repulsion energy        42.6774282867 Hartrees.
 IExCor=    0 DFT=F Ex=HF Corr=None ExCW=0 ScaHFX=  1.000000
 ScaDFX=  1.000000  1.000000  1.000000  1.000000 ScalE2=  1.000000  1.000000
 IRadAn=      5 IRanWt=     -1 IRanGd=            0 ICorTp=0 IEmpDi=  4
 NAtoms=    8 NActive=    8 NUniq=    8 SFac= 1.00D+00 NAtFMM=   60 NAOKFM=F Big=F
 Integral buffers will be    131072 words long.
 Raffenetti 1 integral format.
 Two-electron integral symmetry is turned on.
 Leave Link  301 at Mon Oct 10 14:39:52 2022, MaxMem=   104857600 cpu:               0.3 elap:               0.0
 (Enter /usr/local/g16/l302.exe)
 NPDir=0 NMtPBC=     1 NCelOv=     1 NCel=       1 NClECP=     1 NCelD=      1
         NCelK=      1 NCelE2=     1 NClLst=     1 CellRange=     0.0.
 One-electron integrals computed using PRISM.
 One-electron integral symmetry used in STVInt
 NBasis=    86 RedAO= T EigKep=  1.16D-04  NBF=    86
 NBsUse=    86 1.00D-06 EigRej= -1.00D+00 NBFU=    86
 Leave Link  302 at Mon Oct 10 14:39:52 2022, MaxMem=   104857600 cpu:               0.8 elap:               0.1
 (Enter /usr/local/g16/l303.exe)
 DipDrv:  MaxL=1.
 Leave Link  303 at Mon Oct 10 14:39:52 2022, MaxMem=   104857600 cpu:               0.1 elap:               0.0
 (Enter /usr/local/g16/l401.exe)
 ExpMin= 3.60D-02 ExpMax= 4.56D+03 ExpMxC= 6.82D+02 IAcc=3 IRadAn=         5 AccDes= 0.00D+00
 Harris functional with IExCor=  205 and IRadAn=       5 diagonalized for initial guess.
 HarFok:  IExCor=  205 AccDes= 0.00D+00 IRadAn=         5 IDoV= 1 UseB2=F ITyADJ=14
 ICtDFT=  3500011 ScaDFX=  1.000000  1.000000  1.000000  1.000000
 FoFCou: FMM=F IPFlag=           0 FMFlag=      100000 FMFlg1=           0
         NFxFlg=           0 DoJE=T BraDBF=F KetDBF=T FulRan=T
         wScrn=  0.000000 ICntrl=       500 IOpCl=  0 I1Cent=   200000004 NGrid=           0
         NMat0=    1 NMatS0=      1 NMatT0=    0 NMatD0=    1 NMtDS0=    0 NMtDT0=    0
 Petite list used in FoFCou.
 Harris En= -79.5383935253256    
 JPrj=0 DoOrth=F DoCkMO=F.
 Leave Link  401 at Mon Oct 10 14:39:52 2022, MaxMem=   104857600 cpu:               1.4 elap:               0.1
 (Enter /usr/local/g16/l502.exe)
 Keep R1 ints in memory in canonical form, NReq=9532725.
 FoFCou: FMM=F IPFlag=           0 FMFlag=           0 FMFlg1=           0
         NFxFlg=           0 DoJE=F BraDBF=F KetDBF=F FulRan=T
         wScrn=  0.000000 ICntrl=       600 IOpCl=  0 I1Cent=           0 NGrid=           0
         NMat0=    1 NMatS0=   3741 NMatT0=    0 NMatD0=    1 NMtDS0=    0 NMtDT0=    0
 Symmetry not used in FoFCou.
 Two-electron integral symmetry not used.
 Closed shell SCF:
 Using DIIS extrapolation, IDIIS=  1040.
 NGot=   104857600 LenX=    97840569 LenY=    97832384
 Requested convergence on RMS density matrix=1.00D-08 within 128 cycles.
 Requested convergence on MAX density matrix=1.00D-06.
 Requested convergence on             energy=1.00D-06.
 No special actions if energy rises.

 Cycle   1  Pass 1  IDiag  1:
 E= -79.0395620114205    
 DIIS: error= 6.44D-02 at cycle   1 NSaved=   1.
 NSaved= 1 IEnMin= 1 EnMin= -79.0395620114205     IErMin= 1 ErrMin= 6.44D-02
 ErrMax= 6.44D-02  0.00D+00 EMaxC= 1.00D-01 BMatC= 2.79D-01 BMatP= 2.79D-01
 IDIUse=3 WtCom= 3.56D-01 WtEn= 6.44D-01
 Coeff-Com:  0.100D+01
 Coeff-En:   0.100D+01
 Coeff:      0.100D+01
 Gap=     0.492 Goal=   None    Shift=    0.000
 GapD=    0.492 DampG=2.000 DampE=0.500 DampFc=1.0000 IDamp=-1.
 RMSDP=4.24D-03 MaxDP=1.08D-01              OVMax= 1.43D-01

 Cycle   2  Pass 1  IDiag  1:
 E= -79.2073130891533     Delta-E=       -0.167751077733 Rises=F Damp=F
 DIIS: error= 3.28D-02 at cycle   2 NSaved=   2.
 NSaved= 2 IEnMin= 2 EnMin= -79.2073130891533     IErMin= 2 ErrMin= 3.28D-02
 ErrMax= 3.28D-02  0.00D+00 EMaxC= 1.00D-01 BMatC= 3.91D-02 BMatP= 2.79D-01
 IDIUse=3 WtCom= 6.72D-01 WtEn= 3.28D-01
 Coeff-Com:  0.231D+00 0.769D+00
 Coeff-En:   0.000D+00 0.100D+01
 Coeff:      0.156D+00 0.844D+00
 Gap=     0.581 Goal=   None    Shift=    0.000
 RMSDP=1.90D-03 MaxDP=4.34D-02 DE=-1.68D-01 OVMax= 6.78D-02

 Cycle   3  Pass 1  IDiag  1:
 E= -79.2424731535334     Delta-E=       -0.035160064380 Rises=F Damp=F
 DIIS: error= 7.51D-03 at cycle   3 NSaved=   3.
 NSaved= 3 IEnMin= 3 EnMin= -79.2424731535334     IErMin= 3 ErrMin= 7.51D-03
 ErrMax= 7.51D-03  0.00D+00 EMaxC= 1.00D-01 BMatC= 2.20D-03 BMatP= 3.91D-02
 IDIUse=3 WtCom= 9.25D-01 WtEn= 7.51D-02
 Coeff-Com: -0.239D-01 0.151D+00 0.873D+00
 Coeff-En:   0.000D+00 0.000D+00 0.100D+01
 Coeff:     -0.221D-01 0.139D+00 0.883D+00
 Gap=     0.536 Goal=   None    Shift=    0.000
 RMSDP=3.27D-04 MaxDP=6.34D-03 DE=-3.52D-02 OVMax= 1.25D-02

 Cycle   4  Pass 1  IDiag  1:
 E= -79.2446879266636     Delta-E=       -0.002214773130 Rises=F Damp=F
 DIIS: error= 1.24D-03 at cycle   4 NSaved=   4.
 NSaved= 4 IEnMin= 4 EnMin= -79.2446879266636     IErMin= 4 ErrMin= 1.24D-03
 ErrMax= 1.24D-03  0.00D+00 EMaxC= 1.00D-01 BMatC= 1.88D-05 BMatP= 2.20D-03
 IDIUse=3 WtCom= 9.88D-01 WtEn= 1.24D-02
 Coeff-Com:  0.150D-02-0.392D-01-0.134D+00 0.117D+01
 Coeff-En:   0.000D+00 0.000D+00 0.000D+00 0.100D+01
 Coeff:      0.148D-02-0.387D-01-0.132D+00 0.117D+01
 Gap=     0.537 Goal=   None    Shift=    0.000
 RMSDP=8.95D-05 MaxDP=9.42D-04 DE=-2.21D-03 OVMax= 3.68D-03

 Cycle   5  Pass 1  IDiag  1:
 E= -79.2447319927885     Delta-E=       -0.000044066125 Rises=F Damp=F
 DIIS: error= 1.86D-04 at cycle   5 NSaved=   5.
 NSaved= 5 IEnMin= 5 EnMin= -79.2447319927885     IErMin= 5 ErrMin= 1.86D-04
 ErrMax= 1.86D-04  0.00D+00 EMaxC= 1.00D-01 BMatC= 9.39D-07 BMatP= 1.88D-05
 IDIUse=3 WtCom= 9.98D-01 WtEn= 1.86D-03
 Coeff-Com:  0.107D-02-0.429D-02-0.312D-01-0.167D+00 0.120D+01
 Coeff-En:   0.000D+00 0.000D+00 0.000D+00 0.000D+00 0.100D+01
 Coeff:      0.107D-02-0.429D-02-0.311D-01-0.167D+00 0.120D+01
 Gap=     0.537 Goal=   None    Shift=    0.000
 RMSDP=2.78D-05 MaxDP=2.55D-04 DE=-4.41D-05 OVMax= 1.01D-03

 Cycle   6  Pass 1  IDiag  1:
 E= -79.2447345410340     Delta-E=       -0.000002548245 Rises=F Damp=F
 DIIS: error= 1.35D-05 at cycle   6 NSaved=   6.
 NSaved= 6 IEnMin= 6 EnMin= -79.2447345410340     IErMin= 6 ErrMin= 1.35D-05
 ErrMax= 1.35D-05  0.00D+00 EMaxC= 1.00D-01 BMatC= 6.13D-09 BMatP= 9.39D-07
 IDIUse=1 WtCom= 1.00D+00 WtEn= 0.00D+00
 Coeff-Com: -0.114D-03 0.846D-03 0.539D-02 0.671D-02-0.158D+00 0.114D+01
 Coeff:     -0.114D-03 0.846D-03 0.539D-02 0.671D-02-0.158D+00 0.114D+01
 Gap=     0.537 Goal=   None    Shift=    0.000
 RMSDP=2.73D-06 MaxDP=2.32D-05 DE=-2.55D-06 OVMax= 8.88D-05

 Cycle   7  Pass 1  IDiag  1:
 E= -79.2447345564567     Delta-E=       -0.000000015423 Rises=F Damp=F
 DIIS: error= 1.32D-06 at cycle   7 NSaved=   7.
 NSaved= 7 IEnMin= 7 EnMin= -79.2447345564567     IErMin= 7 ErrMin= 1.32D-06
 ErrMax= 1.32D-06  0.00D+00 EMaxC= 1.00D-01 BMatC= 7.03D-11 BMatP= 6.13D-09
 IDIUse=1 WtCom= 1.00D+00 WtEn= 0.00D+00
 Coeff-Com:  0.123D-04-0.133D-03-0.833D-03 0.650D-03 0.193D-01-0.237D+00
 Coeff-Com:  0.122D+01
 Coeff:      0.123D-04-0.133D-03-0.833D-03 0.650D-03 0.193D-01-0.237D+00
 Coeff:      0.122D+01
 Gap=     0.537 Goal=   None    Shift=    0.000
 RMSDP=3.19D-07 MaxDP=2.29D-06 DE=-1.54D-08 OVMax= 1.07D-05

 Cycle   8  Pass 1  IDiag  1:
 E= -79.2447345566562     Delta-E=       -0.000000000199 Rises=F Damp=F
 DIIS: error= 1.81D-07 at cycle   8 NSaved=   8.
 NSaved= 8 IEnMin= 8 EnMin= -79.2447345566562     IErMin= 8 ErrMin= 1.81D-07
 ErrMax= 1.81D-07  0.00D+00 EMaxC= 1.00D-01 BMatC= 9.90D-13 BMatP= 7.03D-11
 IDIUse=1 WtCom= 1.00D+00 WtEn= 0.00D+00
 Coeff-Com: -0.149D-05 0.205D-04 0.143D-03-0.191D-03-0.334D-02 0.477D-01
 Coeff-Com: -0.296D+00 0.125D+01
 Coeff:     -0.149D-05 0.205D-04 0.143D-03-0.191D-03-0.334D-02 0.477D-01
 Coeff:     -0.296D+00 0.125D+01
 Gap=     0.537 Goal=   None    Shift=    0.000
 RMSDP=2.94D-08 MaxDP=2.81D-07 DE=-1.99D-10 OVMax= 1.40D-06

 Cycle   9  Pass 1  IDiag  1:
 E= -79.2447345566595     Delta-E=       -0.000000000003 Rises=F Damp=F
 DIIS: error= 3.51D-08 at cycle   9 NSaved=   9.
 NSaved= 9 IEnMin= 9 EnMin= -79.2447345566595     IErMin= 9 ErrMin= 3.51D-08
 ErrMax= 3.51D-08  0.00D+00 EMaxC= 1.00D-01 BMatC= 3.25D-14 BMatP= 9.90D-13
 IDIUse=1 WtCom= 1.00D+00 WtEn= 0.00D+00
 Coeff-Com:  0.246D-06-0.394D-05-0.284D-04 0.840D-04 0.474D-03-0.900D-02
 Coeff-Com:  0.633D-01-0.367D+00 0.131D+01
 Coeff:      0.246D-06-0.394D-05-0.284D-04 0.840D-04 0.474D-03-0.900D-02
 Coeff:      0.633D-01-0.367D+00 0.131D+01
 Gap=     0.537 Goal=   None    Shift=    0.000
 RMSDP=8.67D-09 MaxDP=9.28D-08 DE=-3.28D-12 OVMax= 2.14D-07

 SCF Done:  E(RHF) =  -79.2447345567     A.U. after    9 cycles
            NFock=  9  Conv=0.87D-08     -V/T= 1.9986
 KE= 7.935954743460D+01 PE=-2.692764389328D+02 EE= 6.799472865489D+01
 Leave Link  502 at Mon Oct 10 14:39:52 2022, MaxMem=   104857600 cpu:               1.6 elap:               0.2
 (Enter /usr/local/g16/l601.exe)
 Copying SCF densities to generalized density rwf, IOpCl= 0 IROHF=0.

 **********************************************************************

            Population analysis using the SCF density.

 **********************************************************************

 Orbital symmetries:
       Occupied  (A) (A) (A) (A) (A) (A) (A) (A) (A)
       Virtual   (A) (A) (A) (A) (A) (A) (A) (A) (A) (A) (A) (A)
                 (A) (A) (A) (A) (A) (A) (A) (A) (A) (A) (A) (A)
                 (A) (A) (A) (A) (A) (A) (A) (A) (A) (A) (A) (A)
                 (A) (A) (A) (A) (A) (A) (A) (A) (A) (A) (A) (A)
                 (A) (A) (A) (A) (A) (A) (A) (A) (A) (A) (A) (A)
                 (A) (A) (A) (A) (A) (A) (A) (A) (A) (A) (A) (A)
                 (A) (A) (A) (A) (A)
 The electronic state is 1-A.
 Alpha  occ. eigenvalues --  -11.20189 -11.20132  -1.02160  -0.84581  -0.60674
 Alpha  occ. eigenvalues --   -0.60674  -0.49590  -0.49187  -0.49187
 Alpha virt. eigenvalues --    0.04516   0.05802   0.07181   0.07181   0.09908
 Alpha virt. eigenvalues --    0.09908   0.14357   0.15536   0.15536   0.17527
 Alpha virt. eigenvalues --    0.19954   0.20211   0.20211   0.20535   0.28044
 Alpha virt. eigenvalues --    0.28044   0.35985   0.35985   0.37580   0.41388
 Alpha virt. eigenvalues --    0.46135   0.55461   0.55461   0.60432   0.63859
 Alpha virt. eigenvalues --    0.63859   0.86697   0.86697   0.88189   0.89680
 Alpha virt. eigenvalues --    0.89680   0.91709   0.96237   1.02154   1.15938
 Alpha virt. eigenvalues --    1.15938   1.17864   1.56015   1.56015   1.73614
 Alpha virt. eigenvalues --    1.74732   1.77723   1.77723   1.84306   1.86988
 Alpha virt. eigenvalues --    1.86988   1.95029   1.95029   2.07959   2.23634
 Alpha virt. eigenvalues --    2.23634   2.37146   2.40817   2.40817   2.41169
 Alpha virt. eigenvalues --    2.71599   2.71599   2.74703   2.74703   2.81555
 Alpha virt. eigenvalues --    2.92887   2.93310   2.93310   2.93906   2.93906
 Alpha virt. eigenvalues --    3.10526   3.12777   3.12777   3.37057   3.48841
 Alpha virt. eigenvalues --    4.06479   4.06479   4.49862   4.49862   4.67109
 Alpha virt. eigenvalues --   25.15747  25.20587
          Condensed to atoms (all electrons):
               1          2          3          4          5          6
     1  C    5.074527   0.433536   0.433536   0.433536   0.115702  -0.048079
     2  H    0.433536   0.590660  -0.043288  -0.043288  -0.048079   0.004874
     3  H    0.433536  -0.043288   0.590660  -0.043288  -0.048079  -0.014822
     4  H    0.433536  -0.043288  -0.043288   0.590660  -0.048079   0.004874
     5  C    0.115702  -0.048079  -0.048079  -0.048079   5.074527   0.433536
     6  H   -0.048079   0.004874  -0.014822   0.004874   0.433536   0.590660
     7  H   -0.048079   0.004874   0.004874  -0.014823   0.433536  -0.043288
     8  H   -0.048079  -0.014823   0.004874   0.004874   0.433536  -0.043288
               7          8
     1  C   -0.048079  -0.048079
     2  H    0.004874  -0.014823
     3  H    0.004874   0.004874
     4  H   -0.014823   0.004874
     5  C    0.433536   0.433536
     6  H   -0.043288  -0.043288
     7  H    0.590660  -0.043288
     8  H   -0.043288   0.590660
 Mulliken charges:
               1
     1  C   -0.346599
     2  H    0.115533
     3  H    0.115533
     4  H    0.115533
     5  C   -0.346599
     6  H    0.115533
     7  H    0.115533
     8  H    0.115533
 Sum of Mulliken charges =  -0.00000
 Mulliken charges with hydrogens summed into heavy atoms:
               1
     1  C    0.000000
     5  C   -0.000000
 Electronic spatial extent (au):  <R**2>=            108.2232
 Charge=             -0.0000 electrons
 Dipole moment (field-independent basis, Debye):
    X=             -0.0000    Y=             -0.0000    Z=             -0.0000  Tot=              0.0000
 Quadrupole moment (field-independent basis, Debye-Ang):
   XX=            -14.9437   YY=            -14.7710   ZZ=            -15.7638
   XY=              0.0966   XZ=              0.4730   YZ=             -0.2116
 Traceless Quadrupole moment (field-independent basis, Debye-Ang):
   XX=              0.2158   YY=              0.3885   ZZ=             -0.6043
   XY=              0.0966   XZ=              0.4730   YZ=             -0.2116
 Octapole moment (field-independent basis, Debye-Ang**2):
  XXX=             -0.4546  YYY=              0.9363  ZZZ=              0.0666  XYY=              0.3938
  XXY=             -0.7463  XXZ=             -0.0551  XZZ=              0.0608  YZZ=             -0.1899
  YYZ=             -0.0114  XYZ=             -0.4212
 Hexadecapole moment (field-independent basis, Debye-Ang**3):
 XXXX=            -38.8584 YYYY=            -30.6624 ZZZZ=            -80.5546 XXXY=              2.3202
 XXXZ=             11.3611 YYYX=              2.2631 YYYZ=             -4.9570 ZZZX=             12.6882
 ZZZY=             -5.6757 XXYY=            -11.5911 XXZZ=            -20.0290 YYZZ=            -18.0762
 XXYZ=             -1.7982 YYXZ=              3.7405 ZZXY=              1.0920
 N-N= 4.267742828668D+01 E-N=-2.692764384311D+02  KE= 7.935954743460D+01
 No NMR shielding tensors so no spin-rotation constants.
 Leave Link  601 at Mon Oct 10 14:39:52 2022, MaxMem=   104857600 cpu:               0.8 elap:               0.1
 (Enter /usr/local/g16/l701.exe)
 ... and contract with generalized density number  0.
 Compute integral first derivatives.
 Leave Link  701 at Mon Oct 10 14:39:52 2022, MaxMem=   104857600 cpu:               0.8 elap:               0.1
 (Enter /usr/local/g16/l702.exe)
 L702 exits ... SP integral derivatives will be done elsewhere.
 Leave Link  702 at Mon Oct 10 14:39:52 2022, MaxMem=   104857600 cpu:               0.1 elap:               0.0
 (Enter /usr/local/g16/l703.exe)
 Integral derivatives from FoFJK, PRISM(SPDF).
 Compute integral first derivatives, UseDBF=F ICtDFT=           0.
 Calling FoFJK, ICntrl=      2127 FMM=F ISym2X=0 I1Cent= 0 IOpClX= 0 NMat=1 NMatS=1 NMatT=0.
 FoFJK:  IHMeth= 1 ICntrl=    2127 DoSepK=F KAlg= 0 I1Cent=           0 FoldK=F
 IRaf=         0 NMat=       1 IRICut=       1 DoRegI=T DoRafI=F ISym2E= 0 IDoP0=0 IntGTp=1.
 FoFCou: FMM=F IPFlag=           0 FMFlag=      100000 FMFlg1=         800
         NFxFlg=           0 DoJE=F BraDBF=F KetDBF=F FulRan=T
         wScrn=  0.000000 ICntrl=      2127 IOpCl=  0 I1Cent=           0 NGrid=           0
         NMat0=    1 NMatS0=      1 NMatT0=    0 NMatD0=    1 NMtDS0=    0 NMtDT0=    0
 Symmetry not used in FoFCou.
 Leave Link  703 at Mon Oct 10 14:39:52 2022, MaxMem=   104857600 cpu:               1.5 elap:               0.1
 (Enter /usr/local/g16/l716.exe)
 Dipole        =-2.49799701D-08-1.09444545D-08-8.83037976D-09
 ***** Axes restored to original set *****
 -------------------------------------------------------------------
 Center     Atomic                   Forces (Hartrees/Bohr)
 Number     Number              X              Y              Z
 -------------------------------------------------------------------
      1        6          -0.008181755    0.014171138   -0.005785277
      2        1           0.003131224   -0.005423438    0.010276081
      3        1           0.010732099   -0.005423360   -0.000473256
      4        1          -0.000669253   -0.012005980   -0.000473238
      5        6           0.008181752   -0.014171130    0.005785298
      6        1           0.001936063    0.009811787   -0.006692985
      7        1          -0.009465292    0.003229209   -0.006692972
      8        1          -0.005664838    0.009811774    0.004056348
 -------------------------------------------------------------------
 Cartesian Forces:  Max     0.014171138 RMS     0.007829846
 Leave Link  716 at Mon Oct 10 14:39:52 2022, MaxMem=   104857600 cpu:               0.2 elap:               0.0
 (Enter /usr/local/g16/l103.exe)

 GradGradGradGradGradGradGradGradGradGradGradGradGradGradGradGradGradGrad
 Berny optimization.
 FormGI is forming the generalized inverse of G from B-inverse, IUseBI=4.
 Internal  Forces:  Max     0.010632794 RMS     0.006621579
 Search for a local minimum.
 Step number   1 out of a maximum of   38
 All quantities printed in internal units (Hartrees-Bohrs-Radians)
 RMS Force = .67431D-02 SwitMx=.10000D-02 MixMth= 1
 Mixed Optimization -- RFO/linear search
 Second derivative matrix not updated -- first step.
 ITU=  0
     Eigenvalues ---    0.01756   0.05720   0.05720   0.05720   0.16000
     Eigenvalues ---    0.16000   0.16000   0.16000   0.16000   0.16000
     Eigenvalues ---    0.28519   0.37230   0.37230   0.37230   0.37230
     Eigenvalues ---    0.37230   0.372301000.000001000.000001000.00000
     Eigenvalues --- 1000.000001000.000001000.000001000.000001000.00000
     Eigenvalues --- 1000.000001000.000001000.00000
 RFO step:  Lambda=-4.98452393D-03 EMin= 1.75616695D-02
 Linear search not attempted -- first point.
 Iteration  1 RMS(Cart)=  0.04611668 RMS(Int)=  0.00071484
 Iteration  2 RMS(Cart)=  0.00060656 RMS(Int)=  0.00047662
 Iteration  3 RMS(Cart)=  0.00000039 RMS(Int)=  0.00047662
 Iteration  1 RMS(Cart)=  0.00000000 RMS(Int)=  0.00000000
 ITry= 1 IFail=0 DXMaxC= 8.21D-02 DCOld= 1.00D+10 DXMaxT= 3.00D-01 DXLimC= 3.00D+00 Rises=F
 Variable       Old X    -DE/DX   Delta X   Delta X   Delta X     New X
                                 (Linear)    (Quad)   (Total)
    R1        2.02201   0.01028   0.00000   0.02724   0.02724   2.04924
    R2        2.02201   0.01028   0.00000   0.02724   0.02724   2.04924
    R3        2.02201   0.01028   0.00000   0.02724   0.02724   2.04924
    R4        2.91018   0.01063   0.00000   0.03664   0.03664   2.94682
    R5        2.02201   0.01028   0.00000   0.02724   0.02724   2.04924
    R6        2.02201   0.01028   0.00000   0.02724   0.02724   2.04924
    R7        2.02201   0.01028   0.00000   0.02724   0.02724   2.04924
    A1        1.91063  -0.00633   0.00000  -0.03838  -0.03908   1.87156
    A2        1.91063  -0.00633   0.00000  -0.03838  -0.03908   1.87156
    A3        1.91063   0.00633   0.00000   0.03838   0.03762   1.94825
    A4        1.91063  -0.00633   0.00000  -0.03838  -0.03908   1.87156
    A5        1.91063   0.00633   0.00000   0.03837   0.03762   1.94825
    A6        1.91063   0.00633   0.00000   0.03838   0.03762   1.94825
    A7        1.91063   0.00633   0.00000   0.03838   0.03762   1.94825
    A8        1.91063   0.00633   0.00000   0.03838   0.03762   1.94825
    A9        1.91063   0.00633   0.00000   0.03838   0.03762   1.94825
   A10        1.91063  -0.00633   0.00000  -0.03838  -0.03908   1.87156
   A11        1.91063  -0.00633   0.00000  -0.03838  -0.03908   1.87156
   A12        1.91063  -0.00633   0.00000  -0.03838  -0.03908   1.87156
    D1        2.09440  -0.00000   0.00000   0.00000   0.00000   2.09440
    D2       -2.09439  -0.00000   0.00000   0.00000   0.00000  -2.09439
    D3        0.00000  -0.00000   0.00000   0.00000  -0.00000   0.00000
    D4        0.00000  -0.00000   0.00000   0.00000   0.00000   0.00000
    D5        2.09440  -0.00000   0.00000  -0.00000  -0.00000   2.09440
    D6       -2.09439  -0.00000   0.00000  -0.00000  -0.00000  -2.09439
    D7       -2.09440   0.00000   0.00000   0.00000   0.00000  -2.09439
    D8        0.00000   0.00000   0.00000   0.00000   0.00000   0.00000
    D9        2.09440   0.00000   0.00000   0.00000   0.00000   2.09440
         Item               Value     Threshold  Converged?
 Maximum Force            0.010633     0.000015     NO 
 RMS     Force            0.006743     0.000010     NO 
 Maximum Displacement     0.082108     0.000060     NO 
 RMS     Displacement     0.046363     0.000040     NO 
 Predicted change in Energy=-2.550175D-03
 Lowest energy point so far.  Saving SCF results.
 GradGradGradGradGradGradGradGradGradGradGradGradGradGradGradGradGradGrad

 Leave Link  103 at Mon Oct 10 14:39:52 2022, MaxMem=   104857600 cpu:               0.2 elap:               0.0
 (Enter /usr/local/g16/l202.exe)
                          Input orientation:                          
 ---------------------------------------------------------------------
 Center     Atomic      Atomic             Coordinates (Angstroms)
 Number     Number       Type             X           Y           Z
 ---------------------------------------------------------------------
      1          6           0        0.004570   -0.007916    0.003232
      2          1           0        0.024964   -0.043239    1.086878
      3          1           0        1.033039   -0.043238   -0.338756
      4          1           0       -0.479074   -0.916258   -0.338756
      5          6           0       -0.730534    1.265321   -0.516564
      6          1           0       -0.078877    1.882656   -1.124999
      7          1           0       -1.590990    1.009637   -1.124999
      8          1           0       -1.086952    1.882656    0.300635
 ---------------------------------------------------------------------
                    Distance matrix (angstroms):
                    1          2          3          4          5
     1  C    0.000000
     2  H    1.084413   0.000000
     3  H    1.084413   1.746038   0.000000
     4  H    1.084413   1.746038   1.746038   0.000000
     5  C    1.559391   2.203210   2.203210   2.203210   0.000000
     6  H    2.203210   2.934664   2.358730   2.934664   1.084413
     7  H    2.203210   2.934664   2.934664   2.358730   1.084413
     8  H    2.203210   2.358730   2.934664   2.934664   1.084413
                    6          7          8
     6  H    0.000000
     7  H    1.746038   0.000000
     8  H    1.746038   1.746038   0.000000
 This structure is nearly, but not quite of a higher symmetry.
 Consider Symm=Loose if the higher symmetry is desired.
 Stoichiometry    C2H6
 Framework group  C1[X(C2H6)]
 Deg. of freedom    18
 Full point group                 C1      NOp   1
 RotChk:  IX=2 Diff= 2.97D-01
 Largest Abelian subgroup         C1      NOp   1
 Largest concise Abelian subgroup C1      NOp   1
                         Standard orientation:                         
 ---------------------------------------------------------------------
 Center     Atomic      Atomic             Coordinates (Angstroms)
 Number     Number       Type             X           Y           Z
 ---------------------------------------------------------------------
      1          6           0        0.276736   -0.081610   -0.724349
      2          1           0       -0.510064   -0.333641   -1.426757
      3          1           0        1.022020   -0.867269   -0.781305
      4          1           0        0.743816    0.830582   -1.078883
      5          6           0       -0.276736    0.081610    0.724349
      6          1           0        0.184839   -0.620384    1.409992
      7          1           0       -0.093365    1.077467    1.112414
      8          1           0       -1.347245   -0.086756    0.764540
 ---------------------------------------------------------------------
 Rotational constants (GHZ):          82.2422090          19.3829273          19.3829273
 Leave Link  202 at Mon Oct 10 14:39:52 2022, MaxMem=   104857600 cpu:               0.0 elap:               0.0
 (Enter /usr/local/g16/l301.exe)
 Standard basis: 6-311++G(d,p) (5D, 7F)
 Ernie: Thresh=  0.10000D-02 Tol=  0.10000D-05 Strict=F.
 There are    88 symmetry adapted cartesian basis functions of A   symmetry.
 There are    86 symmetry adapted basis functions of A   symmetry.
    86 basis functions,   126 primitive gaussians,    88 cartesian basis functions
     9 alpha electrons        9 beta electrons
       nuclear repulsion energy        42.0040598116 Hartrees.
 IExCor=    0 DFT=F Ex=HF Corr=None ExCW=0 ScaHFX=  1.000000
 ScaDFX=  1.000000  1.000000  1.000000  1.000000 ScalE2=  1.000000  1.000000
 IRadAn=      5 IRanWt=     -1 IRanGd=            0 ICorTp=0 IEmpDi=  4
 NAtoms=    8 NActive=    8 NUniq=    8 SFac= 1.00D+00 NAtFMM=   60 NAOKFM=F Big=F
 Integral buffers will be    131072 words long.
 Raffenetti 1 integral format.
 Two-electron integral symmetry is turned on.
 Leave Link  301 at Mon Oct 10 14:39:53 2022, MaxMem=   104857600 cpu:               0.3 elap:               0.0
 (Enter /usr/local/g16/l302.exe)
 NPDir=0 NMtPBC=     1 NCelOv=     1 NCel=       1 NClECP=     1 NCelD=      1
         NCelK=      1 NCelE2=     1 NClLst=     1 CellRange=     0.0.
 One-electron integrals computed using PRISM.
 One-electron integral symmetry used in STVInt
 NBasis=    86 RedAO= T EigKep=  1.27D-04  NBF=    86
 NBsUse=    86 1.00D-06 EigRej= -1.00D+00 NBFU=    86
 Leave Link  302 at Mon Oct 10 14:39:53 2022, MaxMem=   104857600 cpu:               0.8 elap:               0.1
 (Enter /usr/local/g16/l303.exe)
 DipDrv:  MaxL=1.
 Leave Link  303 at Mon Oct 10 14:39:53 2022, MaxMem=   104857600 cpu:               0.2 elap:               0.0
 (Enter /usr/local/g16/l401.exe)
 Initial guess from the checkpoint file:  "c2h6_s.chk"
 B after Tr=     0.000000   -0.000000    0.000000
         Rot=    0.994473   -0.073176   -0.017589    0.073204 Ang= -12.05 deg.
 Guess basis will be translated and rotated to current coordinates.
 JPrj=2 DoOrth=T DoCkMO=T.
 Generating alternative initial guess.
 ExpMin= 3.60D-02 ExpMax= 4.56D+03 ExpMxC= 6.82D+02 IAcc=3 IRadAn=         5 AccDes= 0.00D+00
 Harris functional with IExCor=  205 and IRadAn=       5 diagonalized for initial guess.
 HarFok:  IExCor=  205 AccDes= 0.00D+00 IRadAn=         5 IDoV= 1 UseB2=F ITyADJ=14
 ICtDFT=  3500011 ScaDFX=  1.000000  1.000000  1.000000  1.000000
 FoFCou: FMM=F IPFlag=           0 FMFlag=      100000 FMFlg1=           0
         NFxFlg=           0 DoJE=T BraDBF=F KetDBF=T FulRan=T
         wScrn=  0.000000 ICntrl=       500 IOpCl=  0 I1Cent=   200000004 NGrid=           0
         NMat0=    1 NMatS0=      1 NMatT0=    0 NMatD0=    1 NMtDS0=    0 NMtDT0=    0
 Petite list used in FoFCou.
 Harris En= -79.5309710115553    
 Leave Link  401 at Mon Oct 10 14:39:53 2022, MaxMem=   104857600 cpu:               1.8 elap:               0.2
 (Enter /usr/local/g16/l502.exe)
 Keep R1 ints in memory in canonical form, NReq=9532725.
 FoFCou: FMM=F IPFlag=           0 FMFlag=           0 FMFlg1=           0
         NFxFlg=           0 DoJE=F BraDBF=F KetDBF=F FulRan=T
         wScrn=  0.000000 ICntrl=       600 IOpCl=  0 I1Cent=           0 NGrid=           0
         NMat0=    1 NMatS0=   3741 NMatT0=    0 NMatD0=    1 NMtDS0=    0 NMtDT0=    0
 Symmetry not used in FoFCou.
 Two-electron integral symmetry not used.
 Closed shell SCF:
 Using DIIS extrapolation, IDIIS=  1040.
 NGot=   104857600 LenX=    97840569 LenY=    97832384
 Requested convergence on RMS density matrix=1.00D-08 within 128 cycles.
 Requested convergence on MAX density matrix=1.00D-06.
 Requested convergence on             energy=1.00D-06.
 No special actions if energy rises.

 Cycle   1  Pass 1  IDiag  1:
 E= -79.2463079922636    
 DIIS: error= 3.95D-03 at cycle   1 NSaved=   1.
 NSaved= 1 IEnMin= 1 EnMin= -79.2463079922636     IErMin= 1 ErrMin= 3.95D-03
 ErrMax= 3.95D-03  0.00D+00 EMaxC= 1.00D-01 BMatC= 5.98D-04 BMatP= 5.98D-04
 IDIUse=3 WtCom= 9.61D-01 WtEn= 3.95D-02
 Coeff-Com:  0.100D+01
 Coeff-En:   0.100D+01
 Coeff:      0.100D+01
 Gap=     0.687 Goal=   None    Shift=    0.000
 GapD=    0.687 DampG=2.000 DampE=1.000 DampFc=2.0000 IDamp=-1.
 RMSDP=2.31D-04 MaxDP=2.78D-03              OVMax= 6.44D-03

 Cycle   2  Pass 1  IDiag  1:
 E= -79.2468422850349     Delta-E=       -0.000534292771 Rises=F Damp=F
 DIIS: error= 1.12D-03 at cycle   2 NSaved=   2.
 NSaved= 2 IEnMin= 2 EnMin= -79.2468422850349     IErMin= 2 ErrMin= 1.12D-03
 ErrMax= 1.12D-03  0.00D+00 EMaxC= 1.00D-01 BMatC= 3.07D-05 BMatP= 5.98D-04
 IDIUse=3 WtCom= 9.89D-01 WtEn= 1.12D-02
 Coeff-Com: -0.218D-01 0.102D+01
 Coeff-En:   0.000D+00 0.100D+01
 Coeff:     -0.215D-01 0.102D+01
 Gap=     0.534 Goal=   None    Shift=    0.000
 RMSDP=6.49D-05 MaxDP=1.48D-03 DE=-5.34D-04 OVMax= 2.58D-03

 Cycle   3  Pass 1  IDiag  1:
 E= -79.2468746708467     Delta-E=       -0.000032385812 Rises=F Damp=F
 DIIS: error= 3.71D-04 at cycle   3 NSaved=   3.
 NSaved= 3 IEnMin= 3 EnMin= -79.2468746708467     IErMin= 3 ErrMin= 3.71D-04
 ErrMax= 3.71D-04  0.00D+00 EMaxC= 1.00D-01 BMatC= 4.42D-06 BMatP= 3.07D-05
 IDIUse=3 WtCom= 9.96D-01 WtEn= 3.71D-03
 Coeff-Com: -0.532D-01 0.237D+00 0.816D+00
 Coeff-En:   0.000D+00 0.000D+00 0.100D+01
 Coeff:     -0.531D-01 0.236D+00 0.817D+00
 Gap=     0.533 Goal=   None    Shift=    0.000
 RMSDP=1.71D-05 MaxDP=2.38D-04 DE=-3.24D-05 OVMax= 6.67D-04

 Cycle   4  Pass 1  IDiag  1:
 E= -79.2468796840145     Delta-E=       -0.000005013168 Rises=F Damp=F
 DIIS: error= 6.17D-05 at cycle   4 NSaved=   4.
 NSaved= 4 IEnMin= 4 EnMin= -79.2468796840145     IErMin= 4 ErrMin= 6.17D-05
 ErrMax= 6.17D-05  0.00D+00 EMaxC= 1.00D-01 BMatC= 7.45D-08 BMatP= 4.42D-06
 IDIUse=1 WtCom= 1.00D+00 WtEn= 0.00D+00
 Coeff-Com:  0.134D-01-0.901D-01-0.191D+00 0.127D+01
 Coeff:      0.134D-01-0.901D-01-0.191D+00 0.127D+01
 Gap=     0.533 Goal=   None    Shift=    0.000
 RMSDP=4.97D-06 MaxDP=5.56D-05 DE=-5.01D-06 OVMax= 2.25D-04

 Cycle   5  Pass 1  IDiag  1:
 E= -79.2468798528905     Delta-E=       -0.000000168876 Rises=F Damp=F
 DIIS: error= 5.76D-06 at cycle   5 NSaved=   5.
 NSaved= 5 IEnMin= 5 EnMin= -79.2468798528905     IErMin= 5 ErrMin= 5.76D-06
 ErrMax= 5.76D-06  0.00D+00 EMaxC= 1.00D-01 BMatC= 8.25D-10 BMatP= 7.45D-08
 IDIUse=1 WtCom= 1.00D+00 WtEn= 0.00D+00
 Coeff-Com: -0.245D-02 0.182D-01 0.346D-01-0.301D+00 0.125D+01
 Coeff:     -0.245D-02 0.182D-01 0.346D-01-0.301D+00 0.125D+01
 Gap=     0.533 Goal=   None    Shift=    0.000
 RMSDP=9.46D-07 MaxDP=1.30D-05 DE=-1.69D-07 OVMax= 3.23D-05

 Cycle   6  Pass 1  IDiag  1:
 E= -79.2468798551052     Delta-E=       -0.000000002215 Rises=F Damp=F
 DIIS: error= 8.53D-07 at cycle   6 NSaved=   6.
 NSaved= 6 IEnMin= 6 EnMin= -79.2468798551052     IErMin= 6 ErrMin= 8.53D-07
 ErrMax= 8.53D-07  0.00D+00 EMaxC= 1.00D-01 BMatC= 1.79D-11 BMatP= 8.25D-10
 IDIUse=1 WtCom= 1.00D+00 WtEn= 0.00D+00
 Coeff-Com:  0.330D-03-0.258D-02-0.461D-02 0.470D-01-0.305D+00 0.126D+01
 Coeff:      0.330D-03-0.258D-02-0.461D-02 0.470D-01-0.305D+00 0.126D+01
 Gap=     0.533 Goal=   None    Shift=    0.000
 RMSDP=1.20D-07 MaxDP=1.13D-06 DE=-2.21D-09 OVMax= 5.12D-06

 Cycle   7  Pass 1  IDiag  1:
 E= -79.2468798551533     Delta-E=       -0.000000000048 Rises=F Damp=F
 DIIS: error= 8.01D-08 at cycle   7 NSaved=   7.
 NSaved= 7 IEnMin= 7 EnMin= -79.2468798551533     IErMin= 7 ErrMin= 8.01D-08
 ErrMax= 8.01D-08  0.00D+00 EMaxC= 1.00D-01 BMatC= 2.53D-13 BMatP= 1.79D-11
 IDIUse=1 WtCom= 1.00D+00 WtEn= 0.00D+00
 Coeff-Com: -0.283D-04 0.216D-03 0.442D-03-0.438D-02 0.376D-01-0.235D+00
 Coeff-Com:  0.120D+01
 Coeff:     -0.283D-04 0.216D-03 0.442D-03-0.438D-02 0.376D-01-0.235D+00
 Coeff:      0.120D+01
 Gap=     0.533 Goal=   None    Shift=    0.000
 RMSDP=2.77D-08 MaxDP=2.91D-07 DE=-4.81D-11 OVMax= 4.96D-07

 Cycle   8  Pass 1  IDiag  1:
 E= -79.2468798551541     Delta-E=       -0.000000000001 Rises=F Damp=F
 DIIS: error= 1.09D-08 at cycle   8 NSaved=   8.
 NSaved= 8 IEnMin= 8 EnMin= -79.2468798551541     IErMin= 8 ErrMin= 1.09D-08
 ErrMax= 1.09D-08  0.00D+00 EMaxC= 1.00D-01 BMatC= 6.92D-15 BMatP= 2.53D-13
 IDIUse=1 WtCom= 1.00D+00 WtEn= 0.00D+00
 Coeff-Com: -0.614D-05 0.495D-04 0.904D-04-0.937D-03 0.536D-02-0.171D-01
 Coeff-Com: -0.106D+00 0.112D+01
 Coeff:     -0.614D-05 0.495D-04 0.904D-04-0.937D-03 0.536D-02-0.171D-01
 Coeff:     -0.106D+00 0.112D+01
 Gap=     0.533 Goal=   None    Shift=    0.000
 RMSDP=4.94D-09 MaxDP=5.32D-08 DE=-7.96D-13 OVMax= 7.35D-08

 SCF Done:  E(RHF) =  -79.2468798552     A.U. after    8 cycles
            NFock=  8  Conv=0.49D-08     -V/T= 2.0008
 KE= 7.918470874975D+01 PE=-2.677830953716D+02 EE= 6.734744695516D+01
 Leave Link  502 at Mon Oct 10 14:39:53 2022, MaxMem=   104857600 cpu:               1.6 elap:               0.2
 (Enter /usr/local/g16/l701.exe)
 ... and contract with generalized density number  0.
 Compute integral first derivatives.
 Leave Link  701 at Mon Oct 10 14:39:53 2022, MaxMem=   104857600 cpu:               0.8 elap:               0.1
 (Enter /usr/local/g16/l702.exe)
 L702 exits ... SP integral derivatives will be done elsewhere.
 Leave Link  702 at Mon Oct 10 14:39:53 2022, MaxMem=   104857600 cpu:               0.1 elap:               0.0
 (Enter /usr/local/g16/l703.exe)
 Integral derivatives from FoFJK, PRISM(SPDF).
 Compute integral first derivatives, UseDBF=F ICtDFT=           0.
 Calling FoFJK, ICntrl=      2127 FMM=F ISym2X=0 I1Cent= 0 IOpClX= 0 NMat=1 NMatS=1 NMatT=0.
 FoFJK:  IHMeth= 1 ICntrl=    2127 DoSepK=F KAlg= 0 I1Cent=           0 FoldK=F
 IRaf=         0 NMat=       1 IRICut=       1 DoRegI=T DoRafI=F ISym2E= 0 IDoP0=0 IntGTp=1.
 FoFCou: FMM=F IPFlag=           0 FMFlag=      100000 FMFlg1=         800
         NFxFlg=           0 DoJE=F BraDBF=F KetDBF=F FulRan=T
         wScrn=  0.000000 ICntrl=      2127 IOpCl=  0 I1Cent=           0 NGrid=           0
         NMat0=    1 NMatS0=      1 NMatT0=    0 NMatD0=    1 NMtDS0=    0 NMtDT0=    0
 Symmetry not used in FoFCou.
 Leave Link  703 at Mon Oct 10 14:39:53 2022, MaxMem=   104857600 cpu:               1.5 elap:               0.1
 (Enter /usr/local/g16/l716.exe)
 Dipole        =-6.23610497D-10-5.70482744D-10-2.70955258D-10
 ***** Axes restored to original set *****
 -------------------------------------------------------------------
 Center     Atomic                   Forces (Hartrees/Bohr)
 Number     Number              X              Y              Z
 -------------------------------------------------------------------
      1        6          -0.004279177    0.007411749   -0.003025837
      2        1          -0.000305308    0.000528812    0.000490933
      3        1           0.000361097    0.000528801   -0.000451489
      4        1          -0.000638503   -0.000048312   -0.000451494
      5        6           0.004279177   -0.007411746    0.003025843
      6        1           0.000749573   -0.000144068   -0.000176794
      7        1          -0.000250028   -0.000721178   -0.000176793
      8        1           0.000083169   -0.000144057    0.000765632
 -------------------------------------------------------------------
 Cartesian Forces:  Max     0.007411749 RMS     0.002649570
 Leave Link  716 at Mon Oct 10 14:39:53 2022, MaxMem=   104857600 cpu:               0.1 elap:               0.0
 (Enter /usr/local/g16/l103.exe)

 GradGradGradGradGradGradGradGradGradGradGradGradGradGradGradGradGradGrad
 Berny optimization.
 Using GEDIIS/GDIIS optimizer.
 FormGI is forming the generalized inverse of G from B-inverse, IUseBI=4.
 Internal  Forces:  Max     0.010313638 RMS     0.002002652
 Search for a local minimum.
 Step number   2 out of a maximum of   38
 All quantities printed in internal units (Hartrees-Bohrs-Radians)
 RMS Force = .20394D-02 SwitMx=.10000D-02 MixMth= 1
 Mixed Optimization -- RFO/linear search
 Update second derivatives using D2CorX and points    1    2
 DE= -2.15D-03 DEPred=-2.55D-03 R= 8.41D-01
 TightC=F SS=  1.41D+00  RLast= 1.53D-01 DXNew= 5.0454D-01 4.5938D-01
 Trust test= 8.41D-01 RLast= 1.53D-01 DXMaxT set to 4.59D-01
 ITU=  1  0
 Use linear search instead of GDIIS.
     Eigenvalues ---    0.01607   0.05321   0.05321   0.05321   0.15905
     Eigenvalues ---    0.16000   0.16000   0.16000   0.16000   0.16000
     Eigenvalues ---    0.31663   0.37230   0.37230   0.37230   0.37230
     Eigenvalues ---    0.37230   0.386081000.000001000.000001000.00000
     Eigenvalues --- 1000.000001000.000001000.000001000.000001000.00000
     Eigenvalues --- 1000.000001000.000001000.00000
 RFO step:  Lambda=-2.64276004D-04 EMin= 1.60735160D-02
 Quartic linear search produced a step of -0.11091.
 Iteration  1 RMS(Cart)=  0.00903832 RMS(Int)=  0.00004860
 Iteration  2 RMS(Cart)=  0.00000313 RMS(Int)=  0.00004854
 Iteration  3 RMS(Cart)=  0.00000000 RMS(Int)=  0.00004854
 Iteration  1 RMS(Cart)=  0.00000000 RMS(Int)=  0.00000000
 ITry= 1 IFail=0 DXMaxC= 1.60D-02 DCOld= 1.00D+10 DXMaxT= 4.59D-01 DXLimC= 3.00D+00 Rises=F
 Variable       Old X    -DE/DX   Delta X   Delta X   Delta X     New X
                                 (Linear)    (Quad)   (Total)
    R1        2.04924   0.00047  -0.00302   0.00553   0.00251   2.05176
    R2        2.04924   0.00047  -0.00302   0.00553   0.00251   2.05176
    R3        2.04924   0.00047  -0.00302   0.00553   0.00251   2.05176
    R4        2.94682  -0.01031  -0.00406  -0.02620  -0.03027   2.91656
    R5        2.04924   0.00047  -0.00302   0.00553   0.00251   2.05176
    R6        2.04924   0.00047  -0.00302   0.00553   0.00251   2.05176
    R7        2.04924   0.00047  -0.00302   0.00553   0.00251   2.05176
    A1        1.87156   0.00064   0.00433  -0.00277   0.00164   1.87320
    A2        1.87156   0.00064   0.00433  -0.00277   0.00164   1.87320
    A3        1.94825  -0.00060  -0.00417   0.00257  -0.00153   1.94673
    A4        1.87156   0.00064   0.00433  -0.00277   0.00164   1.87320
    A5        1.94825  -0.00060  -0.00417   0.00257  -0.00153   1.94673
    A6        1.94825  -0.00060  -0.00417   0.00257  -0.00153   1.94673
    A7        1.94825  -0.00060  -0.00417   0.00257  -0.00153   1.94673
    A8        1.94825  -0.00060  -0.00417   0.00257  -0.00153   1.94673
    A9        1.94825  -0.00060  -0.00417   0.00257  -0.00153   1.94673
   A10        1.87156   0.00064   0.00433  -0.00277   0.00164   1.87320
   A11        1.87156   0.00064   0.00433  -0.00277   0.00164   1.87320
   A12        1.87156   0.00064   0.00433  -0.00277   0.00164   1.87320
    D1        2.09440   0.00000  -0.00000   0.00000   0.00000   2.09440
    D2       -2.09439  -0.00000  -0.00000   0.00000   0.00000  -2.09439
    D3        0.00000   0.00000   0.00000   0.00000   0.00000   0.00000
    D4        0.00000   0.00000  -0.00000   0.00000   0.00000   0.00000
    D5        2.09440   0.00000   0.00000   0.00000   0.00000   2.09440
    D6       -2.09439   0.00000   0.00000   0.00000   0.00000  -2.09439
    D7       -2.09439   0.00000  -0.00000   0.00000   0.00000  -2.09439
    D8        0.00000  -0.00000  -0.00000   0.00000   0.00000   0.00000
    D9        2.09440  -0.00000  -0.00000   0.00000   0.00000   2.09440
         Item               Value     Threshold  Converged?
 Maximum Force            0.010314     0.000015     NO 
 RMS     Force            0.002039     0.000010     NO 
 Maximum Displacement     0.015988     0.000060     NO 
 RMS     Displacement     0.009041     0.000040     NO 
 Predicted change in Energy=-1.646644D-04
 Lowest energy point so far.  Saving SCF results.
 GradGradGradGradGradGradGradGradGradGradGradGradGradGradGradGradGradGrad

 Leave Link  103 at Mon Oct 10 14:39:53 2022, MaxMem=   104857600 cpu:               0.2 elap:               0.0
 (Enter /usr/local/g16/l202.exe)
                          Input orientation:                          
 ---------------------------------------------------------------------
 Center     Atomic      Atomic             Coordinates (Angstroms)
 Number     Number       Type             X           Y           Z
 ---------------------------------------------------------------------
      1          6           0        0.000795   -0.001378    0.000563
      2          1           0        0.020387   -0.035311    1.085598
      3          1           0        1.030307   -0.035310   -0.342645
      4          1           0       -0.484574   -0.909927   -0.342645
      5          6           0       -0.726759    1.258783   -0.513895
      6          1           0       -0.073070    1.875793   -1.122850
      7          1           0       -1.587951    1.001176   -1.122849
      8          1           0       -1.082990    1.875793    0.305394
 ---------------------------------------------------------------------
                    Distance matrix (angstroms):
                    1          2          3          4          5
     1  C    0.000000
     2  H    1.085743   0.000000
     3  H    1.085743   1.749234   0.000000
     4  H    1.085743   1.749234   1.749234   0.000000
     5  C    1.543375   2.188900   2.188900   2.188900   0.000000
     6  H    2.188900   2.922036   2.340615   2.922036   1.085743
     7  H    2.188900   2.922036   2.922036   2.340615   1.085743
     8  H    2.188900   2.340615   2.922036   2.922036   1.085743
                    6          7          8
     6  H    0.000000
     7  H    1.749234   0.000000
     8  H    1.749234   1.749234   0.000000
 This structure is nearly, but not quite of a higher symmetry.
 Consider Symm=Loose if the higher symmetry is desired.
 Stoichiometry    C2H6
 Framework group  C1[X(C2H6)]
 Deg. of freedom    18
 Full point group                 C1      NOp   1
 RotChk:  IX=1 Diff= 2.24D+00
 Largest Abelian subgroup         C1      NOp   1
 Largest concise Abelian subgroup C1      NOp   1
                         Standard orientation:                         
 ---------------------------------------------------------------------
 Center     Atomic      Atomic             Coordinates (Angstroms)
 Number     Number       Type             X           Y           Z
 ---------------------------------------------------------------------
      1          6           0        0.760851   -0.014880    0.128006
      2          1           0        1.124201   -1.030311    0.253356
      3          1           0        1.024932    0.536143    1.025487
      4          1           0        1.312488    0.426472   -0.696460
      5          6           0       -0.760851    0.014880   -0.128006
      6          1           0       -1.282815    0.581274    0.637231
      7          1           0       -0.995259    0.471603   -1.084716
      8          1           0       -1.183546   -0.985180   -0.134899
 ---------------------------------------------------------------------
 Rotational constants (GHZ):          81.9419810          19.6968813          19.6968812
 Leave Link  202 at Mon Oct 10 14:39:53 2022, MaxMem=   104857600 cpu:               0.0 elap:               0.0
 (Enter /usr/local/g16/l301.exe)
 Standard basis: 6-311++G(d,p) (5D, 7F)
 Ernie: Thresh=  0.10000D-02 Tol=  0.10000D-05 Strict=F.
 There are    88 symmetry adapted cartesian basis functions of A   symmetry.
 There are    86 symmetry adapted basis functions of A   symmetry.
    86 basis functions,   126 primitive gaussians,    88 cartesian basis functions
     9 alpha electrons        9 beta electrons
       nuclear repulsion energy        42.1724077871 Hartrees.
 IExCor=    0 DFT=F Ex=HF Corr=None ExCW=0 ScaHFX=  1.000000
 ScaDFX=  1.000000  1.000000  1.000000  1.000000 ScalE2=  1.000000  1.000000
 IRadAn=      5 IRanWt=     -1 IRanGd=            0 ICorTp=0 IEmpDi=  4
 NAtoms=    8 NActive=    8 NUniq=    8 SFac= 1.00D+00 NAtFMM=   60 NAOKFM=F Big=F
 Integral buffers will be    131072 words long.
 Raffenetti 1 integral format.
 Two-electron integral symmetry is turned on.
 Leave Link  301 at Mon Oct 10 14:39:53 2022, MaxMem=   104857600 cpu:               0.3 elap:               0.0
 (Enter /usr/local/g16/l302.exe)
 NPDir=0 NMtPBC=     1 NCelOv=     1 NCel=       1 NClECP=     1 NCelD=      1
         NCelK=      1 NCelE2=     1 NClLst=     1 CellRange=     0.0.
 One-electron integrals computed using PRISM.
 One-electron integral symmetry used in STVInt
 NBasis=    86 RedAO= T EigKep=  1.21D-04  NBF=    86
 NBsUse=    86 1.00D-06 EigRej= -1.00D+00 NBFU=    86
 Leave Link  302 at Mon Oct 10 14:39:54 2022, MaxMem=   104857600 cpu:               0.8 elap:               0.1
 (Enter /usr/local/g16/l303.exe)
 DipDrv:  MaxL=1.
 Leave Link  303 at Mon Oct 10 14:39:54 2022, MaxMem=   104857600 cpu:               0.2 elap:               0.0
 (Enter /usr/local/g16/l401.exe)
 Initial guess from the checkpoint file:  "c2h6_s.chk"
 B after Tr=     0.000000    0.000000    0.000000
         Rot=    0.611216    0.549385    0.448300   -0.351593 Ang= 104.65 deg.
 Guess basis will be translated and rotated to current coordinates.
 JPrj=2 DoOrth=T DoCkMO=T.
 Leave Link  401 at Mon Oct 10 14:39:54 2022, MaxMem=   104857600 cpu:               0.5 elap:               0.1
 (Enter /usr/local/g16/l502.exe)
 Keep R1 ints in memory in canonical form, NReq=9532725.
 FoFCou: FMM=F IPFlag=           0 FMFlag=           0 FMFlg1=           0
         NFxFlg=           0 DoJE=F BraDBF=F KetDBF=F FulRan=T
         wScrn=  0.000000 ICntrl=       600 IOpCl=  0 I1Cent=           0 NGrid=           0
         NMat0=    1 NMatS0=   3741 NMatT0=    0 NMatD0=    1 NMtDS0=    0 NMtDT0=    0
 Symmetry not used in FoFCou.
 Two-electron integral symmetry not used.
 Closed shell SCF:
 Using DIIS extrapolation, IDIIS=  1040.
 NGot=   104857600 LenX=    97840569 LenY=    97832384
 Requested convergence on RMS density matrix=1.00D-08 within 128 cycles.
 Requested convergence on MAX density matrix=1.00D-06.
 Requested convergence on             energy=1.00D-06.
 No special actions if energy rises.

 Cycle   1  Pass 1  IDiag  1:
 E= -79.2469982218597    
 DIIS: error= 1.22D-03 at cycle   1 NSaved=   1.
 NSaved= 1 IEnMin= 1 EnMin= -79.2469982218597     IErMin= 1 ErrMin= 1.22D-03
 ErrMax= 1.22D-03  0.00D+00 EMaxC= 1.00D-01 BMatC= 4.94D-05 BMatP= 4.94D-05
 IDIUse=3 WtCom= 9.88D-01 WtEn= 1.22D-02
 Coeff-Com:  0.100D+01
 Coeff-En:   0.100D+01
 Coeff:      0.100D+01
 Gap=     0.684 Goal=   None    Shift=    0.000
 GapD=    0.684 DampG=2.000 DampE=1.000 DampFc=2.0000 IDamp=-1.
 RMSDP=8.50D-05 MaxDP=1.42D-03              OVMax= 2.63D-03

 Cycle   2  Pass 1  IDiag  1:
 E= -79.2470532644454     Delta-E=       -0.000055042586 Rises=F Damp=F
 DIIS: error= 2.91D-04 at cycle   2 NSaved=   2.
 NSaved= 2 IEnMin= 2 EnMin= -79.2470532644454     IErMin= 2 ErrMin= 2.91D-04
 ErrMax= 2.91D-04  0.00D+00 EMaxC= 1.00D-01 BMatC= 2.29D-06 BMatP= 4.94D-05
 IDIUse=3 WtCom= 9.97D-01 WtEn= 2.91D-03
 Coeff-Com: -0.138D+00 0.114D+01
 Coeff-En:   0.000D+00 0.100D+01
 Coeff:     -0.137D+00 0.114D+01
 Gap=     0.531 Goal=   None    Shift=    0.000
 RMSDP=1.92D-05 MaxDP=3.85D-04 DE=-5.50D-05 OVMax= 7.67D-04

 Cycle   3  Pass 1  IDiag  1:
 E= -79.2470569128811     Delta-E=       -0.000003648436 Rises=F Damp=F
 DIIS: error= 7.62D-05 at cycle   3 NSaved=   3.
 NSaved= 3 IEnMin= 3 EnMin= -79.2470569128811     IErMin= 3 ErrMin= 7.62D-05
 ErrMax= 7.62D-05  0.00D+00 EMaxC= 1.00D-01 BMatC= 1.21D-07 BMatP= 2.29D-06
 IDIUse=1 WtCom= 1.00D+00 WtEn= 0.00D+00
 Coeff-Com: -0.313D-01 0.470D-01 0.984D+00
 Coeff:     -0.313D-01 0.470D-01 0.984D+00
 Gap=     0.531 Goal=   None    Shift=    0.000
 RMSDP=4.70D-06 MaxDP=6.23D-05 DE=-3.65D-06 OVMax= 2.62D-04

 Cycle   4  Pass 1  IDiag  1:
 E= -79.2470571051371     Delta-E=       -0.000000192256 Rises=F Damp=F
 DIIS: error= 1.84D-05 at cycle   4 NSaved=   4.
 NSaved= 4 IEnMin= 4 EnMin= -79.2470571051371     IErMin= 4 ErrMin= 1.84D-05
 ErrMax= 1.84D-05  0.00D+00 EMaxC= 1.00D-01 BMatC= 1.27D-08 BMatP= 1.21D-07
 IDIUse=1 WtCom= 1.00D+00 WtEn= 0.00D+00
 Coeff-Com:  0.495D-02-0.687D-01 0.178D+00 0.886D+00
 Coeff:      0.495D-02-0.687D-01 0.178D+00 0.886D+00
 Gap=     0.531 Goal=   None    Shift=    0.000
 RMSDP=1.31D-06 MaxDP=1.72D-05 DE=-1.92D-07 OVMax= 5.48D-05

 Cycle   5  Pass 1  IDiag  1:
 E= -79.2470571225024     Delta-E=       -0.000000017365 Rises=F Damp=F
 DIIS: error= 3.42D-06 at cycle   5 NSaved=   5.
 NSaved= 5 IEnMin= 5 EnMin= -79.2470571225024     IErMin= 5 ErrMin= 3.42D-06
 ErrMax= 3.42D-06  0.00D+00 EMaxC= 1.00D-01 BMatC= 2.58D-10 BMatP= 1.27D-08
 IDIUse=1 WtCom= 1.00D+00 WtEn= 0.00D+00
 Coeff-Com:  0.582D-03 0.454D-02-0.562D-01-0.120D+00 0.117D+01
 Coeff:      0.582D-03 0.454D-02-0.562D-01-0.120D+00 0.117D+01
 Gap=     0.531 Goal=   None    Shift=    0.000
 RMSDP=4.01D-07 MaxDP=4.40D-06 DE=-1.74D-08 OVMax= 2.12D-05

 Cycle   6  Pass 1  IDiag  1:
 E= -79.2470571232379     Delta-E=       -0.000000000735 Rises=F Damp=F
 DIIS: error= 5.60D-07 at cycle   6 NSaved=   6.
 NSaved= 6 IEnMin= 6 EnMin= -79.2470571232379     IErMin= 6 ErrMin= 5.60D-07
 ErrMax= 5.60D-07  0.00D+00 EMaxC= 1.00D-01 BMatC= 7.48D-12 BMatP= 2.58D-10
 IDIUse=1 WtCom= 1.00D+00 WtEn= 0.00D+00
 Coeff-Com: -0.252D-03 0.180D-02 0.248D-02-0.894D-02-0.190D+00 0.119D+01
 Coeff:     -0.252D-03 0.180D-02 0.248D-02-0.894D-02-0.190D+00 0.119D+01
 Gap=     0.531 Goal=   None    Shift=    0.000
 RMSDP=8.02D-08 MaxDP=9.22D-07 DE=-7.35D-10 OVMax= 3.36D-06

 Cycle   7  Pass 1  IDiag  1:
 E= -79.2470571232604     Delta-E=       -0.000000000022 Rises=F Damp=F
 DIIS: error= 5.83D-08 at cycle   7 NSaved=   7.
 NSaved= 7 IEnMin= 7 EnMin= -79.2470571232604     IErMin= 7 ErrMin= 5.83D-08
 ErrMax= 5.83D-08  0.00D+00 EMaxC= 1.00D-01 BMatC= 1.60D-13 BMatP= 7.48D-12
 IDIUse=1 WtCom= 1.00D+00 WtEn= 0.00D+00
 Coeff-Com:  0.484D-04-0.579D-03 0.103D-02 0.612D-02 0.302D-02-0.217D+00
 Coeff-Com:  0.121D+01
 Coeff:      0.484D-04-0.579D-03 0.103D-02 0.612D-02 0.302D-02-0.217D+00
 Coeff:      0.121D+01
 Gap=     0.531 Goal=   None    Shift=    0.000
 RMSDP=1.32D-08 MaxDP=1.59D-07 DE=-2.24D-11 OVMax= 2.77D-07

 Cycle   8  Pass 1  IDiag  1:
 E= -79.2470571232607     Delta-E=       -0.000000000000 Rises=F Damp=F
 DIIS: error= 7.11D-09 at cycle   8 NSaved=   8.
 NSaved= 8 IEnMin= 8 EnMin= -79.2470571232607     IErMin= 8 ErrMin= 7.11D-09
 ErrMax= 7.11D-09  0.00D+00 EMaxC= 1.00D-01 BMatC= 1.75D-15 BMatP= 1.60D-13
 IDIUse=1 WtCom= 1.00D+00 WtEn= 0.00D+00
 Coeff-Com: -0.718D-05 0.100D-03-0.212D-03-0.111D-02 0.381D-03 0.405D-01
 Coeff-Com: -0.290D+00 0.125D+01
 Coeff:     -0.718D-05 0.100D-03-0.212D-03-0.111D-02 0.381D-03 0.405D-01
 Coeff:     -0.290D+00 0.125D+01
 Gap=     0.531 Goal=   None    Shift=    0.000
 RMSDP=1.51D-09 MaxDP=2.12D-08 DE=-3.69D-13 OVMax= 2.35D-08

 SCF Done:  E(RHF) =  -79.2470571233     A.U. after    8 cycles
            NFock=  8  Conv=0.15D-08     -V/T= 2.0006
 KE= 7.920147450452D+01 PE=-2.681335597041D+02 EE= 6.751262028927D+01
 Leave Link  502 at Mon Oct 10 14:39:54 2022, MaxMem=   104857600 cpu:               1.6 elap:               0.2
 (Enter /usr/local/g16/l701.exe)
 ... and contract with generalized density number  0.
 Compute integral first derivatives.
 Leave Link  701 at Mon Oct 10 14:39:54 2022, MaxMem=   104857600 cpu:               0.9 elap:               0.1
 (Enter /usr/local/g16/l702.exe)
 L702 exits ... SP integral derivatives will be done elsewhere.
 Leave Link  702 at Mon Oct 10 14:39:54 2022, MaxMem=   104857600 cpu:               0.1 elap:               0.0
 (Enter /usr/local/g16/l703.exe)
 Integral derivatives from FoFJK, PRISM(SPDF).
 Compute integral first derivatives, UseDBF=F ICtDFT=           0.
 Calling FoFJK, ICntrl=      2127 FMM=F ISym2X=0 I1Cent= 0 IOpClX= 0 NMat=1 NMatS=1 NMatT=0.
 FoFJK:  IHMeth= 1 ICntrl=    2127 DoSepK=F KAlg= 0 I1Cent=           0 FoldK=F
 IRaf=         0 NMat=       1 IRICut=       1 DoRegI=T DoRafI=F ISym2E= 0 IDoP0=0 IntGTp=1.
 FoFCou: FMM=F IPFlag=           0 FMFlag=      100000 FMFlg1=         800
         NFxFlg=           0 DoJE=F BraDBF=F KetDBF=F FulRan=T
         wScrn=  0.000000 ICntrl=      2127 IOpCl=  0 I1Cent=           0 NGrid=           0
         NMat0=    1 NMatS0=      1 NMatT0=    0 NMatD0=    1 NMtDS0=    0 NMtDT0=    0
 Symmetry not used in FoFCou.
 Leave Link  703 at Mon Oct 10 14:39:54 2022, MaxMem=   104857600 cpu:               1.5 elap:               0.1
 (Enter /usr/local/g16/l716.exe)
 Dipole        = 1.11097798D-11 2.43320275D-09 3.69779929D-10
 ***** Axes restored to original set *****
 -------------------------------------------------------------------
 Center     Atomic                   Forces (Hartrees/Bohr)
 Number     Number              X              Y              Z
 -------------------------------------------------------------------
      1        6          -0.000566310    0.000980882   -0.000400444
      2        1           0.000108084   -0.000187211   -0.000408229
      3        1          -0.000348851   -0.000187214    0.000237983
      4        1           0.000336558    0.000208510    0.000237981
      5        6           0.000566310   -0.000980882    0.000400444
      6        1          -0.000412714   -0.000076603    0.000192826
      7        1           0.000272694    0.000319119    0.000192826
      8        1           0.000044228   -0.000076601   -0.000453386
 -------------------------------------------------------------------
 Cartesian Forces:  Max     0.000980882 RMS     0.000416667
 Leave Link  716 at Mon Oct 10 14:39:54 2022, MaxMem=   104857600 cpu:               0.1 elap:               0.0
 (Enter /usr/local/g16/l103.exe)

 GradGradGradGradGradGradGradGradGradGradGradGradGradGradGradGradGradGrad
 Berny optimization.
 Using GEDIIS/GDIIS optimizer.
 FormGI is forming the generalized inverse of G from B-inverse, IUseBI=4.
 Internal  Forces:  Max     0.000998125 RMS     0.000303676
 Search for a local minimum.
 Step number   3 out of a maximum of   38
 All quantities printed in internal units (Hartrees-Bohrs-Radians)
 RMS Force = .30925D-03 SwitMx=.10000D-02 MixMth= 2
 Mixed Optimization -- En-DIIS/RFO-DIIS
 Update second derivatives using D2CorX and points    1    2    3
 DE= -1.77D-04 DEPred=-1.65D-04 R= 1.08D+00
 TightC=F SS=  1.41D+00  RLast= 3.14D-02 DXNew= 7.7258D-01 9.4103D-02
 Trust test= 1.08D+00 RLast= 3.14D-02 DXMaxT set to 4.59D-01
 ITU=  1  1  0
 Use linear search instead of GDIIS.
     Eigenvalues ---    0.01613   0.05337   0.05337   0.05337   0.14881
     Eigenvalues ---    0.16000   0.16000   0.16000   0.16000   0.16000
     Eigenvalues ---    0.32407   0.37230   0.37230   0.37230   0.37230
     Eigenvalues ---    0.37230   0.374631000.000001000.000001000.00000
     Eigenvalues --- 1000.000001000.000001000.000001000.000001000.00000
     Eigenvalues --- 1000.000001000.000001000.00000
 RFO step:  Lambda=-9.99684692D-06 EMin= 1.61319643D-02
 Quartic linear search produced a step of  0.06141.
 Iteration  1 RMS(Cart)=  0.00115854 RMS(Int)=  0.00000192
 Iteration  2 RMS(Cart)=  0.00000231 RMS(Int)=  0.00000085
 Iteration  3 RMS(Cart)=  0.00000000 RMS(Int)=  0.00000085
 Iteration  1 RMS(Cart)=  0.00000000 RMS(Int)=  0.00000000
 ITry= 1 IFail=0 DXMaxC= 2.15D-03 DCOld= 1.00D+10 DXMaxT= 4.59D-01 DXLimC= 3.00D+00 Rises=F
 Variable       Old X    -DE/DX   Delta X   Delta X   Delta X     New X
                                 (Linear)    (Quad)   (Total)
    R1        2.05176  -0.00040   0.00015  -0.00108  -0.00093   2.05083
    R2        2.05176  -0.00040   0.00015  -0.00108  -0.00093   2.05083
    R3        2.05176  -0.00040   0.00015  -0.00108  -0.00093   2.05083
    R4        2.91656  -0.00100  -0.00186  -0.00255  -0.00441   2.91215
    R5        2.05176  -0.00040   0.00015  -0.00108  -0.00093   2.05083
    R6        2.05176  -0.00040   0.00015  -0.00108  -0.00093   2.05083
    R7        2.05176  -0.00040   0.00015  -0.00108  -0.00093   2.05083
    A1        1.87320  -0.00024   0.00010  -0.00184  -0.00174   1.87145
    A2        1.87320  -0.00024   0.00010  -0.00184  -0.00174   1.87145
    A3        1.94673   0.00022  -0.00009   0.00172   0.00162   1.94835
    A4        1.87320  -0.00024   0.00010  -0.00184  -0.00174   1.87145
    A5        1.94673   0.00022  -0.00009   0.00172   0.00162   1.94835
    A6        1.94673   0.00022  -0.00009   0.00172   0.00162   1.94835
    A7        1.94673   0.00022  -0.00009   0.00172   0.00162   1.94835
    A8        1.94673   0.00022  -0.00009   0.00172   0.00162   1.94835
    A9        1.94673   0.00022  -0.00009   0.00172   0.00162   1.94835
   A10        1.87320  -0.00024   0.00010  -0.00184  -0.00174   1.87145
   A11        1.87320  -0.00024   0.00010  -0.00184  -0.00174   1.87145
   A12        1.87320  -0.00024   0.00010  -0.00184  -0.00174   1.87145
    D1        2.09440   0.00000   0.00000   0.00000   0.00000   2.09440
    D2       -2.09439   0.00000   0.00000   0.00000   0.00000  -2.09439
    D3        0.00000   0.00000   0.00000   0.00000   0.00000   0.00000
    D4        0.00000   0.00000   0.00000   0.00000   0.00000   0.00000
    D5        2.09440   0.00000   0.00000   0.00000   0.00000   2.09440
    D6       -2.09439   0.00000   0.00000   0.00000   0.00000  -2.09439
    D7       -2.09439  -0.00000   0.00000   0.00000   0.00000  -2.09439
    D8        0.00000   0.00000   0.00000   0.00000   0.00000   0.00000
    D9        2.09440   0.00000   0.00000   0.00000   0.00000   2.09440
         Item               Value     Threshold  Converged?
 Maximum Force            0.000998     0.000015     NO 
 RMS     Force            0.000309     0.000010     NO 
 Maximum Displacement     0.002149     0.000060     NO 
 RMS     Displacement     0.001159     0.000040     NO 
 Predicted change in Energy=-5.650309D-06
 Lowest energy point so far.  Saving SCF results.
 GradGradGradGradGradGradGradGradGradGradGradGradGradGradGradGradGradGrad

 Leave Link  103 at Mon Oct 10 14:39:54 2022, MaxMem=   104857600 cpu:               0.2 elap:               0.0
 (Enter /usr/local/g16/l202.exe)
                          Input orientation:                          
 ---------------------------------------------------------------------
 Center     Atomic      Atomic             Coordinates (Angstroms)
 Number     Number       Type             X           Y           Z
 ---------------------------------------------------------------------
      1          6           0        0.000246   -0.000425    0.000174
      2          1           0        0.020708   -0.035867    1.084655
      3          1           0        1.029524   -0.035866   -0.342028
      4          1           0       -0.483701   -0.909527   -0.342028
      5          6           0       -0.726209    1.257830   -0.513506
      6          1           0       -0.074126    1.875712   -1.122426
      7          1           0       -1.587352    1.002051   -1.122426
      8          1           0       -1.082943    1.875712    0.304257
 ---------------------------------------------------------------------
                    Distance matrix (angstroms):
                    1          2          3          4          5
     1  C    0.000000
     2  H    1.085253   0.000000
     3  H    1.085253   1.747322   0.000000
     4  H    1.085253   1.747322   1.747322   0.000000
     5  C    1.541042   2.187614   2.187614   2.187614   0.000000
     6  H    2.187614   2.921358   2.341195   2.921358   1.085253
     7  H    2.187614   2.921358   2.921358   2.341195   1.085253
     8  H    2.187614   2.341195   2.921358   2.921358   1.085253
                    6          7          8
     6  H    0.000000
     7  H    1.747322   0.000000
     8  H    1.747322   1.747322   0.000000
 This structure is nearly, but not quite of a higher symmetry.
 Consider Symm=Loose if the higher symmetry is desired.
 Stoichiometry    C2H6
 Framework group  C1[X(C2H6)]
 Deg. of freedom    18
 Full point group                 C1      NOp   1
 RotChk:  IX=2 Diff= 1.81D+00
 Largest Abelian subgroup         C1      NOp   1
 Largest concise Abelian subgroup C1      NOp   1
                         Standard orientation:                         
 ---------------------------------------------------------------------
 Center     Atomic      Atomic             Coordinates (Angstroms)
 Number     Number       Type             X           Y           Z
 ---------------------------------------------------------------------
      1          6           0        0.310522   -0.136577    0.691828
      2          1           0       -0.407506   -0.584396    1.371288
      3          1           0        0.667470    0.776423    1.157437
      4          1           0        1.155298   -0.814501    0.624408
      5          6           0       -0.310522    0.136577   -0.691828
      6          1           0       -0.276037    1.191405   -0.944652
      7          1           0        0.211790   -0.399519   -1.477681
      8          1           0       -1.351014   -0.169413   -0.730801
 ---------------------------------------------------------------------
 Rotational constants (GHZ):          82.1213247          19.7321015          19.7321015
 Leave Link  202 at Mon Oct 10 14:39:54 2022, MaxMem=   104857600 cpu:               0.0 elap:               0.0
 (Enter /usr/local/g16/l301.exe)
 Standard basis: 6-311++G(d,p) (5D, 7F)
 Ernie: Thresh=  0.10000D-02 Tol=  0.10000D-05 Strict=F.
 There are    88 symmetry adapted cartesian basis functions of A   symmetry.
 There are    86 symmetry adapted basis functions of A   symmetry.
    86 basis functions,   126 primitive gaussians,    88 cartesian basis functions
     9 alpha electrons        9 beta electrons
       nuclear repulsion energy        42.2062023773 Hartrees.
 IExCor=    0 DFT=F Ex=HF Corr=None ExCW=0 ScaHFX=  1.000000
 ScaDFX=  1.000000  1.000000  1.000000  1.000000 ScalE2=  1.000000  1.000000
 IRadAn=      5 IRanWt=     -1 IRanGd=            0 ICorTp=0 IEmpDi=  4
 NAtoms=    8 NActive=    8 NUniq=    8 SFac= 1.00D+00 NAtFMM=   60 NAOKFM=F Big=F
 Integral buffers will be    131072 words long.
 Raffenetti 1 integral format.
 Two-electron integral symmetry is turned on.
 Leave Link  301 at Mon Oct 10 14:39:54 2022, MaxMem=   104857600 cpu:               0.3 elap:               0.0
 (Enter /usr/local/g16/l302.exe)
 NPDir=0 NMtPBC=     1 NCelOv=     1 NCel=       1 NClECP=     1 NCelD=      1
         NCelK=      1 NCelE2=     1 NClLst=     1 CellRange=     0.0.
 One-electron integrals computed using PRISM.
 One-electron integral symmetry used in STVInt
 NBasis=    86 RedAO= T EigKep=  1.20D-04  NBF=    86
 NBsUse=    86 1.00D-06 EigRej= -1.00D+00 NBFU=    86
 Leave Link  302 at Mon Oct 10 14:39:54 2022, MaxMem=   104857600 cpu:               0.8 elap:               0.1
 (Enter /usr/local/g16/l303.exe)
 DipDrv:  MaxL=1.
 Leave Link  303 at Mon Oct 10 14:39:54 2022, MaxMem=   104857600 cpu:               0.2 elap:               0.0
 (Enter /usr/local/g16/l401.exe)
 Initial guess from the checkpoint file:  "c2h6_s.chk"
 B after Tr=    -0.000000    0.000000   -0.000000
         Rot=    0.769741    0.376726    0.352354    0.376063 Ang=  79.34 deg.
 Guess basis will be translated and rotated to current coordinates.
 JPrj=2 DoOrth=T DoCkMO=T.
 Leave Link  401 at Mon Oct 10 14:39:54 2022, MaxMem=   104857600 cpu:               0.5 elap:               0.1
 (Enter /usr/local/g16/l502.exe)
 Keep R1 ints in memory in canonical form, NReq=9532725.
 FoFCou: FMM=F IPFlag=           0 FMFlag=           0 FMFlg1=           0
         NFxFlg=           0 DoJE=F BraDBF=F KetDBF=F FulRan=T
         wScrn=  0.000000 ICntrl=       600 IOpCl=  0 I1Cent=           0 NGrid=           0
         NMat0=    1 NMatS0=   3741 NMatT0=    0 NMatD0=    1 NMtDS0=    0 NMtDT0=    0
 Symmetry not used in FoFCou.
 Two-electron integral symmetry not used.
 Closed shell SCF:
 Using DIIS extrapolation, IDIIS=  1040.
 NGot=   104857600 LenX=    97840569 LenY=    97832384
 Requested convergence on RMS density matrix=1.00D-08 within 128 cycles.
 Requested convergence on MAX density matrix=1.00D-06.
 Requested convergence on             energy=1.00D-06.
 No special actions if energy rises.

 Cycle   1  Pass 1  IDiag  1:
 E= -79.2470610970534    
 DIIS: error= 2.09D-04 at cycle   1 NSaved=   1.
 NSaved= 1 IEnMin= 1 EnMin= -79.2470610970534     IErMin= 1 ErrMin= 2.09D-04
 ErrMax= 2.09D-04  0.00D+00 EMaxC= 1.00D-01 BMatC= 1.66D-06 BMatP= 1.66D-06
 IDIUse=3 WtCom= 9.98D-01 WtEn= 2.09D-03
 Coeff-Com:  0.100D+01
 Coeff-En:   0.100D+01
 Coeff:      0.100D+01
 Gap=     0.684 Goal=   None    Shift=    0.000
 RMSDP=1.26D-05 MaxDP=2.36D-04              OVMax= 4.67D-04

 Cycle   2  Pass 1  IDiag  1:
 E= -79.2470628171414     Delta-E=       -0.000001720088 Rises=F Damp=F
 DIIS: error= 4.92D-05 at cycle   2 NSaved=   2.
 NSaved= 2 IEnMin= 2 EnMin= -79.2470628171414     IErMin= 2 ErrMin= 4.92D-05
 ErrMax= 4.92D-05  0.00D+00 EMaxC= 1.00D-01 BMatC= 8.62D-08 BMatP= 1.66D-06
 IDIUse=1 WtCom= 1.00D+00 WtEn= 0.00D+00
 Coeff-Com: -0.947D-01 0.109D+01
 Coeff:     -0.947D-01 0.109D+01
 Gap=     0.531 Goal=   None    Shift=    0.000
 RMSDP=3.65D-06 MaxDP=6.27D-05 DE=-1.72D-06 OVMax= 1.32D-04

 Cycle   3  Pass 1  IDiag  1:
 E= -79.2470629380900     Delta-E=       -0.000000120949 Rises=F Damp=F
 DIIS: error= 2.41D-05 at cycle   3 NSaved=   3.
 NSaved= 3 IEnMin= 3 EnMin= -79.2470629380900     IErMin= 3 ErrMin= 2.41D-05
 ErrMax= 2.41D-05  0.00D+00 EMaxC= 1.00D-01 BMatC= 1.07D-08 BMatP= 8.62D-08
 IDIUse=1 WtCom= 1.00D+00 WtEn= 0.00D+00
 Coeff-Com: -0.624D-01 0.224D+00 0.838D+00
 Coeff:     -0.624D-01 0.224D+00 0.838D+00
 Gap=     0.531 Goal=   None    Shift=    0.000
 RMSDP=9.94D-07 MaxDP=1.28D-05 DE=-1.21D-07 OVMax= 5.52D-05

 Cycle   4  Pass 1  IDiag  1:
 E= -79.2470629514357     Delta-E=       -0.000000013346 Rises=F Damp=F
 DIIS: error= 3.00D-06 at cycle   4 NSaved=   4.
 NSaved= 4 IEnMin= 4 EnMin= -79.2470629514357     IErMin= 4 ErrMin= 3.00D-06
[...]
               11            12            13            14            15 
     11  0.596041D-01
     12 -0.460129D-01  0.117477D+00
     13 -0.460129D-01 -0.233764D-01  0.117477D+00
     14  0.433657D-03 -0.954130D-02  0.733202D-02  0.117477D+00
     15  0.433653D-03  0.733203D-02 -0.954130D-02 -0.233764D-01  0.117477D+00
     16 -0.638255D-02  0.733202D-02  0.733203D-02 -0.233764D-01 -0.233764D-01
     17  0.458190D-03  0.433652D-03  0.433658D-03 -0.460129D-01 -0.460129D-01
     18  0.273981D-02  0.433657D-03 -0.638255D-02 -0.460129D-01  0.158828D-01
     19  0.273981D-02 -0.638255D-02  0.433653D-03  0.158828D-01 -0.460129D-01
     20 -0.590461D-03  0.592630D-02 -0.496170D-02 -0.964606D-03 -0.496170D-02
     21  0.590461D-03  0.496170D-02 -0.592631D-02  0.496170D-02  0.964609D-03
     22  0.000000D+00  0.689091D-02 -0.689091D-02 -0.689091D-02  0.689091D-02
     23  0.583440D-02  0.000000D+00  0.689091D-02  0.000000D+00 -0.689091D-02
     24  0.701532D-02 -0.964606D-03  0.592630D-02  0.592630D-02 -0.964606D-03
     25  0.642486D-02  0.964609D-03  0.496170D-02 -0.592631D-02  0.496170D-02
     26 -0.701532D-02 -0.592631D-02  0.964609D-03  0.964609D-03 -0.592631D-02
     27 -0.583440D-02 -0.689091D-02  0.000000D+00  0.689091D-02  0.000000D+00
     28 -0.642486D-02 -0.496170D-02 -0.964606D-03 -0.496170D-02  0.592630D-02
               16            17            18            19            20 
     16  0.117477D+00
     17  0.158828D-01  0.596041D-01
     18 -0.460129D-01  0.111865D-01  0.596041D-01
     19 -0.460129D-01  0.111865D-01  0.111865D-01  0.596041D-01
     20  0.592630D-02 -0.642486D-02  0.701532D-02 -0.590461D-03  0.161653D-01
     21 -0.592631D-02  0.642486D-02  0.590462D-03 -0.701532D-02  0.389098D-02
     22  0.000000D+00  0.000000D+00 -0.583440D-02  0.583440D-02  0.380008D-02
     23  0.689091D-02 -0.583440D-02  0.583440D-02  0.000000D+00  0.380008D-02
     24 -0.496170D-02  0.701532D-02 -0.590461D-03 -0.642486D-02 -0.847424D-02
     25  0.964609D-03  0.590461D-03 -0.701532D-02  0.642486D-02 -0.856514D-02
     26  0.496170D-02 -0.701532D-02  0.642486D-02  0.590462D-03  0.389098D-02
     27 -0.689091D-02  0.583440D-02  0.000000D+00 -0.583440D-02 -0.838334D-02
     28 -0.964606D-03 -0.590461D-03 -0.642486D-02  0.701532D-02 -0.847424D-02
               21            22            23            24            25 
     21  0.161653D-01
     22  0.380008D-02  0.159835D-01
     23 -0.838334D-02 -0.838334D-02  0.159835D-01
     24  0.389098D-02 -0.838334D-02  0.380008D-02  0.161653D-01
     25 -0.847424D-02  0.380008D-02  0.380008D-02  0.389098D-02  0.161653D-01
     26 -0.847424D-02 -0.838334D-02  0.380008D-02 -0.856514D-02 -0.847424D-02
     27  0.380008D-02 -0.838334D-02 -0.838334D-02  0.380008D-02 -0.838334D-02
     28 -0.856514D-02  0.380008D-02 -0.838334D-02 -0.847424D-02  0.389098D-02
               26            27            28 
     26  0.161653D-01
     27  0.380008D-02  0.159835D-01
     28  0.389098D-02  0.380008D-02  0.161653D-01
 Leave Link  716 at Mon Oct 10 14:39:58 2022, MaxMem=   104857600 cpu:               0.2 elap:               0.0
 (Enter /usr/local/g16/l103.exe)

 GradGradGradGradGradGradGradGradGradGradGradGradGradGradGradGradGradGrad
 Berny optimization.
 Red2BG is reusing G-inverse.
 Internal  Forces:  Max     0.000001168 RMS     0.000000575
 Search for a local minimum.
 Step number   1 out of a maximum of    2
 All quantities printed in internal units (Hartrees-Bohrs-Radians)
 Second derivative matrix not updated -- analytic derivatives used.
 ITU=  0
     Eigenvalues ---    0.01244   0.05223   0.05415   0.05415   0.13790
     Eigenvalues ---    0.13966   0.15245   0.15245   0.19102   0.19177
     Eigenvalues ---    0.33747   0.35779   0.35837   0.36243   0.36243
     Eigenvalues ---    0.37224   0.374901000.000001000.000001000.00000
     Eigenvalues --- 1000.000001000.000001000.000001000.000001000.00000
     Eigenvalues --- 1000.000001000.000001000.00000
 Angle between quadratic step and forces=  26.35 degrees.
 Linear search not attempted -- first point.
 Iteration  1 RMS(Cart)=  0.00000211 RMS(Int)=  0.00000000
 Iteration  2 RMS(Cart)=  0.00000000 RMS(Int)=  0.00000000
 Iteration  1 RMS(Cart)=  0.00000000 RMS(Int)=  0.00000000
 ITry= 1 IFail=0 DXMaxC= 4.31D-06 DCOld= 1.00D+10 DXMaxT= 3.00D-01 DXLimC= 3.00D+00 Rises=F
 Variable       Old X    -DE/DX   Delta X   Delta X   Delta X     New X
                                 (Linear)    (Quad)   (Total)
    R1        2.05084   0.00000   0.00000   0.00000   0.00000   2.05084
    R2        2.05084   0.00000   0.00000   0.00000   0.00000   2.05084
    R3        2.05084   0.00000   0.00000   0.00000   0.00000   2.05084
    R4        2.91209  -0.00000   0.00000  -0.00000  -0.00000   2.91209
    R5        2.05084   0.00000   0.00000   0.00000   0.00000   2.05084
    R6        2.05084   0.00000   0.00000   0.00000   0.00000   2.05084
    R7        2.05084   0.00000   0.00000   0.00000   0.00000   2.05084
    A1        1.87129  -0.00000   0.00000  -0.00000  -0.00000   1.87129
    A2        1.87129  -0.00000   0.00000  -0.00000  -0.00000   1.87129
    A3        1.94850   0.00000   0.00000   0.00000   0.00000   1.94850
    A4        1.87129  -0.00000   0.00000  -0.00000  -0.00000   1.87129
    A5        1.94850   0.00000   0.00000   0.00000   0.00000   1.94850
    A6        1.94850   0.00000   0.00000   0.00000   0.00000   1.94850
    A7        1.94850   0.00000   0.00000   0.00000   0.00000   1.94850
    A8        1.94850   0.00000   0.00000   0.00000   0.00000   1.94850
    A9        1.94850   0.00000   0.00000   0.00000   0.00000   1.94850
   A10        1.87129  -0.00000   0.00000  -0.00000  -0.00000   1.87129
   A11        1.87129  -0.00000   0.00000  -0.00000  -0.00000   1.87129
   A12        1.87129  -0.00000   0.00000  -0.00000  -0.00000   1.87129
    D1        2.09440   0.00000   0.00000   0.00000   0.00000   2.09440
    D2       -2.09439   0.00000   0.00000   0.00000   0.00000  -2.09439
    D3        0.00000   0.00000   0.00000   0.00000   0.00000   0.00000
    D4        0.00000  -0.00000   0.00000   0.00000   0.00000   0.00000
    D5        2.09440  -0.00000   0.00000   0.00000   0.00000   2.09440
    D6       -2.09439   0.00000   0.00000   0.00000   0.00000  -2.09439
    D7       -2.09439  -0.00000   0.00000   0.00000   0.00000  -2.09439
    D8        0.00000  -0.00000   0.00000   0.00000   0.00000   0.00000
    D9        2.09440   0.00000   0.00000   0.00000   0.00000   2.09440
         Item               Value     Threshold  Converged?
 Maximum Force            0.000001     0.000015     YES
 RMS     Force            0.000001     0.000010     YES
 Maximum Displacement     0.000004     0.000060     YES
 RMS     Displacement     0.000002     0.000040     YES
 Predicted change in Energy=-1.577312D-11
 Optimization completed.
    -- Stationary point found.
                           ----------------------------
                           !   Optimized Parameters   !
                           ! (Angstroms and Degrees)  !
 --------------------------                            --------------------------
 ! Name  Definition              Value          Derivative Info.                !
 --------------------------------------------------------------------------------
 ! R1    R(1,2)                  1.0853         -DE/DX =    0.0                 !
 ! R2    R(1,3)                  1.0853         -DE/DX =    0.0                 !
 ! R3    R(1,4)                  1.0853         -DE/DX =    0.0                 !
 ! R4    R(1,5)                  1.541          -DE/DX =    0.0                 !
 ! R5    R(5,6)                  1.0853         -DE/DX =    0.0                 !
 ! R6    R(5,7)                  1.0853         -DE/DX =    0.0                 !
 ! R7    R(5,8)                  1.0853         -DE/DX =    0.0                 !
 ! A1    A(2,1,3)              107.2173         -DE/DX =    0.0                 !
 ! A2    A(2,1,4)              107.2173         -DE/DX =    0.0                 !
 ! A3    A(2,1,5)              111.6407         -DE/DX =    0.0                 !
 ! A4    A(3,1,4)              107.2173         -DE/DX =    0.0                 !
 ! A5    A(3,1,5)              111.6407         -DE/DX =    0.0                 !
 ! A6    A(4,1,5)              111.6407         -DE/DX =    0.0                 !
 ! A7    A(1,5,6)              111.6407         -DE/DX =    0.0                 !
 ! A8    A(1,5,7)              111.6407         -DE/DX =    0.0                 !
 ! A9    A(1,5,8)              111.6407         -DE/DX =    0.0                 !
 ! A10   A(6,5,7)              107.2173         -DE/DX =    0.0                 !
 ! A11   A(6,5,8)              107.2173         -DE/DX =    0.0                 !
 ! A12   A(7,5,8)              107.2173         -DE/DX =    0.0                 !
 ! D1    D(2,1,5,6)            120.0            -DE/DX =    0.0                 !
 ! D2    D(2,1,5,7)           -120.0            -DE/DX =    0.0                 !
 ! D3    D(2,1,5,8)              0.0            -DE/DX =    0.0                 !
 ! D4    D(3,1,5,6)              0.0            -DE/DX =    0.0                 !
 ! D5    D(3,1,5,7)            120.0            -DE/DX =    0.0                 !
 ! D6    D(3,1,5,8)           -120.0            -DE/DX =    0.0                 !
 ! D7    D(4,1,5,6)           -120.0            -DE/DX =    0.0                 !
 ! D8    D(4,1,5,7)              0.0            -DE/DX =    0.0                 !
 ! D9    D(4,1,5,8)            120.0            -DE/DX =    0.0                 !
 --------------------------------------------------------------------------------
 GradGradGradGradGradGradGradGradGradGradGradGradGradGradGradGradGradGrad

 Leave Link  103 at Mon Oct 10 14:39:58 2022, MaxMem=   104857600 cpu:               0.2 elap:               0.0
 (Enter /usr/local/g16/l9999.exe)
 Dipole is zero, so no output in dipole orientation.

 ----------------------------------------------------------------------

 Electric dipole moment (input orientation):
 (Debye = 10**-18 statcoulomb cm , SI units = C m)
                  (au)            (Debye)         (10**-30 SI)
   Tot        0.000000D+00      0.000000D+00      0.000000D+00
   x          0.000000D+00      0.000000D+00      0.000000D+00
   y          0.000000D+00      0.000000D+00      0.000000D+00
   z          0.000000D+00      0.000000D+00      0.000000D+00

 Dipole polarizability, Alpha (input orientation).
 (esu units = cm**3 , SI units = C**2 m**2 J**-1)
 Alpha(0;0):
               (au)            (10**-24 esu)      (10**-40 SI)
   iso        0.247137D+02      0.366220D+01      0.407474D+01
   aniso      0.126568D+01      0.187554D+00      0.208682D+00
   xx         0.245731D+02      0.364136D+01      0.405156D+01
   yx        -0.487160D+00     -0.721897D-01     -0.803219D-01
   yy         0.251356D+02      0.372471D+01      0.414430D+01
   zx         0.198882D+00      0.294713D-01      0.327912D-01
   zy        -0.344474D+00     -0.510458D-01     -0.567961D-01
   zz         0.244325D+02      0.362052D+01      0.402837D+01

 First dipole hyperpolarizability, Beta (input orientation).
 ||, _|_  parallel and perpendicular components, (z) with respect to z axis,
 vector components x,y,z.  Values do not include the 1/n! factor of 1/2.
 (esu units = statvolt**-1 cm**4 , SI units = C**3 m**3 J**-2)
 Beta(0;0,0):
               (au)            (10**-30 esu)      (10**-50 SI)
   || (z)     0.000000D+00      0.000000D+00      0.000000D+00
   _|_(z)     0.000000D+00      0.000000D+00      0.000000D+00
   x          0.000000D+00      0.000000D+00      0.000000D+00
   y          0.000000D+00      0.000000D+00      0.000000D+00
   z          0.000000D+00      0.000000D+00      0.000000D+00
   ||         0.000000D+00      0.000000D+00      0.000000D+00
   xxx        0.102877D+02      0.888779D-01      0.329861D-01
   xxy       -0.178189D+01     -0.153941D-01     -0.571338D-02
   yxy       -0.617264D+01     -0.533268D-01     -0.197917D-01
   yyy       -0.534566D+01     -0.461824D-01     -0.171401D-01
   xxz       -0.189138D+02     -0.163400D+00     -0.606444D-01
   yxz       -0.125999D+02     -0.108853D+00     -0.403997D-01
   yyz       -0.436472D+01     -0.377078D-01     -0.139949D-01
   zxz       -0.411508D+01     -0.355511D-01     -0.131944D-01
   zyz        0.712755D+01      0.615765D-01      0.228535D-01
   zzz        0.232785D+02      0.201108D+00      0.746393D-01

 ----------------------------------------------------------------------
 1\1\GINC-AE2-C724\Freq\RHF\6-311++G(d,p)\C2H6\DDI\10-Oct-2022\0\\#P Ge
 om=AllCheck Guess=TCheck SCRF=Check GenChk RHF/6-311++G(d,p) Freq\\Tit
 le Card Required\\0,1\C,0.0002381226,-0.0004126188,0.000168599\H,0.020
 7801379,-0.035992423,1.084648342\H,1.0295426602,-0.0359917024,-0.34195
 78519\H,-0.4836013267,-0.909606248,-0.3419578979\C,-0.7262016543,1.257
 8173799,-0.5135010681\H,-0.0742352764,1.8758064684,-1.122445677\H,-1.5
 873793676,1.0021921032,-1.1224451338\H,-1.0829974228,1.8758060852,0.30
 41608114\\Version=ES64L-G16RevA.03\State=1-A\HF=-79.247063\RMSD=5.861e
 -10\RMSF=8.864e-07\ZeroPoint=0.0781087\Thermal=0.0811043\Dipole=0.,0.,
 0.\DipoleDeriv=0.135903,0.0155262,-0.0063386,0.0155262,0.1179749,0.010
 9787,-0.0063385,0.0109787,0.1403851,0.0517216,0.0265616,0.0004912,0.02
 65616,0.0210509,-0.0008507,-0.0279124,0.0483457,-0.2041935,-0.1843761,
 0.0544345,0.0555608,0.0080517,0.0210509,0.0253261,0.0839644,0.0089273,
 0.0319042,-0.0032485,-0.0965223,-0.0497134,-0.0501395,-0.1600767,-0.03
 54541,-0.0497134,-0.0682517,0.0319042,0.135903,0.0155262,-0.0063385,0.
 0155262,0.1179749,0.0109787,-0.0063386,0.0109787,0.1403851,-0.0472042,
 -0.0869837,0.0936638,-0.0406009,-0.0612522,0.0929276,0.0652603,0.10932
 64,-0.0229646,-0.1129861,-0.0026218,-0.1273095,-0.0490046,0.0045295,-0
 .0346515,-0.1273095,-0.0018539,-0.0229644,0.0242872,0.0740792,0.039984
 2,0.0740792,-0.0612522,-0.0692548,0.0683878,-0.1184512,-0.0944561\Pola
 r=24.5730902,-0.4871603,25.1356139,0.1988822,-0.3444738,24.4324586\Pol
 arDeriv=-4.1580897,-0.0883744,4.5521885,2.5667612,-0.5065722,-0.060782
 4,-0.2529318,4.4571807,-0.4296686,-0.5065726,3.1517013,0.1052787,2.633
 9423,-0.5065727,3.2188812,-0.1557894,0.2698365,-5.617133,0.5680853,-0.
 2063378,-0.5551907,1.3242277,-0.2268162,0.3880295,0.195171,-0.3233789,
 -0.2175061,-0.2268164,1.5861321,-0.6720863,0.812176,0.0113888,0.799025
 8,0.692492,-1.1994311,9.3890098,8.777384,-1.1567852,0.5682632,-1.67130
 53,0.3474235,1.159092,-0.7182831,1.3876255,-0.2175024,0.09614,-0.83359
 58,0.2413723,-1.7876713,0.1092186,-0.7897801,1.7433465,-0.2489793,-0.7
 112948,-1.5533007,-1.9011958,-2.3091043,-0.8509543,-0.3774899,-0.78858
 01,-0.9723562,-2.339031,-7.5891061,-0.1262058,-1.653947,-0.8831177,-0.
 9446667,-0.3774895,-1.6327854,-0.6560502,-1.6342723,-0.7112953,1.50703
 64,0.5475509,-2.9615541,2.3071493,3.7534422,1.1212024,0.7121081,-2.866
 5478,1.8071984,3.7534417,-2.0269505,-1.9419855,2.2399691,3.7534414,-2.
 0941313,1.2162094,-2.1065424,-0.381528,2.850297,1.6878536,2.009465,-1.
 8234876,-1.2164192,1.4751917,0.772739,2.1479961,3.909372,-1.2210881,-2
 .1123787,1.8457501,-1.2982528,-1.3621431,-1.7473248,1.3786143,2.360249
 5,-3.1916515,-6.1582149,-0.3578832,-0.3264987,-3.0956264,-0.4866186,-2
 .3360605,-0.6954694,-1.1882767,-1.1721562,-0.4819495,-0.8402381,-0.354
 6784,-2.8147066,-0.4866187,-0.2308693,-2.7333415,-0.0137913,-3.1916473
 ,-1.8331973,1.4751721,-0.9775689,1.2432354,-1.2869496,-0.9580926,0.959
 0225,-1.2755679,3.9093689,-1.2869493,2.7292767,1.6594669,1.1592099,-1.
 1412248,2.476984,-1.485481,2.5729305,4.4155401\HyperPolar=10.2877183,-
 1.7818875,-6.1726353,-5.3456631,-18.9137741,-12.599851,-4.3647236,-4.1
 150829,7.1275506,23.2784977\Quadrupole=0.0596449,-0.178935,0.1192901,0
 .2066165,-0.0843507,0.1460997\PG=C01 [X(C2H6)]\NImag=1\\0.59893557,0.0
 3618457,0.55715327,-0.01477227,0.02558631,0.60938118,-0.05629849,-0.00
 072643,-0.00216605,0.05477465,-0.00072643,-0.05545968,0.00375171,-0.00
 378290,0.05914277,-0.00360420,0.00624265,-0.33607536,0.00342648,-0.005
 93485,0.36356353,-0.30680239,0.00564330,0.08496242,0.00240676,-0.00024
 259,0.00076971,0.33140727,0.00329482,-0.05545967,-0.00193539,0.0005437
 4,-0.00035279,-0.00044955,-0.00685620,0.05914276,0.08640056,-0.0027657
 0,-0.08557146,0.03716692,0.00066252,-0.01100588,-0.09437803,-0.0015883
 3,0.08693092,-0.11442493,-0.10777424,-0.04080508,0.00046750,0.00166337
 ,0.00000446,-0.01575018,-0.02947990,-0.01342340,0.12127114,-0.10542576
 ,-0.24783713,-0.07454734,0.00087705,0.00158647,-0.00089136,-0.00054805
 ,0.00158645,0.00112400,0.11446582,0.26927889,-0.04080508,-0.07620796,-
 0.08557146,-0.01915721,-0.03185625,-0.01100588,0.00573828,0.01218700,0
 .00521182,0.04856452,0.08093964,0.08693092,-0.11545345,0.05061954,-0.0
 2066531,-0.00123606,0.00028432,0.00080660,-0.01226008,0.02842280,-0.01
 344971,0.00753983,-0.01265387,0.00608941,0.59893556,0.05061954,-0.1739
 0379,0.03579336,0.00028433,-0.00156437,-0.00139707,-0.00122240,-0.0015
 6435,0.00073375,0.01699133,-0.02136427,0.01201467,0.03618456,0.5571532
 7,-0.02066531,0.03579336,-0.10084078,-0.01734731,0.03004641,-0.0077900
 6,0.00470419,-0.00974741,0.00323396,0.00608942,-0.00894766,0.00323396,
 -0.01477228,0.02558631,0.60938120,0.01094866,0.01234332,-0.01180862,-0
 .00077399,0.00197350,-0.00137870,0.00253337,-0.00028333,-0.00017294,-0
 .00029353,0.00206085,-0.00073167,-0.16096752,-0.09774237,0.09671258,0.
 17377920,-0.01730187,-0.01548961,0.01494615,0.00108545,-0.00307396,0.0
 0076816,-0.00008283,0.00239510,-0.00048610,0.00189960,-0.00295388,0.00
 183783,-0.09539389,-0.14296060,0.08653953,0.10235154,0.15371961,0.0063
 4527,0.00446498,-0.00604953,-0.00098370,0.00173818,-0.00014900,-0.0002
 9572,-0.00041521,0.00191229,-0.00048410,0.00049684,-0.00074954,0.09527
 443,0.08736984,-0.14390540,-0.10552395,-0.09811539,0.14998213,-0.01102
 717,-0.00461414,-0.00703944,-0.00117440,0.00131663,0.00002411,-0.00057
 387,0.00206146,-0.00122578,0.00227111,0.00006859,0.00050745,-0.2310928
 9,-0.05490715,-0.12330165,-0.01812673,-0.00659991,-0.01328687,0.247373
 67,0.02503107,0.00648622,0.01769962,0.00220467,-0.00267354,0.00157807,
 0.00222271,-0.00267354,0.00155256,-0.00013192,0.00265736,-0.00009328,-
 0.05725563,-0.07283539,-0.04048581,-0.01519541,-0.00554321,-0.01238034
 ,0.05986193,0.08012532,-0.00703942,-0.00326268,-0.00604952,-0.00101346
 ,0.00172100,-0.00014900,-0.00018822,0.00066766,-0.00074954,0.00050745,
 0.00004850,0.00191229,-0.12330164,-0.03882518,-0.14390524,0.01736515,0
 .00531661,0.01471804,0.13773231,0.04232874,0.14998196,-0.00587780,0.00
 832407,0.01229435,0.00183401,-0.00048591,-0.00004847,-0.00096088,0.002
 29660,-0.00091762,-0.00108096,0.00115537,-0.00020571,-0.08546539,0.049
 79217,0.06858037,-0.00709946,0.01404190,0.01895465,0.01235029,-0.01673
 743,-0.02406217,0.08630019,0.00832405,-0.01548960,-0.02129443,-0.00048
 591,0.00239510,0.00008395,0.00108605,-0.00307396,0.00076732,0.00236593
 ,-0.00295388,0.00117835,0.04979217,-0.14296049,-0.11878474,-0.00550810
 ,0.01390656,0.01684112,0.00281258,-0.00554321,-0.00799466,-0.05838677,
 0.15371949,-0.00585956,0.01014905,0.01077693,0.00007432,-0.00012873,0.
 00261166,-0.00131262,0.00128123,0.00003789,-0.00045327,0.00177739,0.00
 003789,0.07001851,-0.12127567,-0.21940765,0.00553815,-0.01080680,-0.01
 575899,0.00658988,-0.01019957,-0.01575898,-0.07459540,0.12920310,0.237
 46127\\0.00000106,-0.00000184,0.00000075,-0.00000017,0.00000030,-0.000
 00116,-0.00000115,0.00000030,0.00000022,0.00000032,0.00000114,0.000000
 22,-0.00000106,0.00000184,-0.00000075,-0.00000048,-0.00000086,0.000000
 70,0.00000098,-0.00000002,0.00000070,0.00000049,-0.00000086,-0.0000006
 8\\\@


 WHEN ALL ELSE FAILS, TRY THE BOSS'S SUGGESTION.
 Job cpu time:       0 days  0 hours  0 minutes 20.2 seconds.
 Elapsed time:       0 days  0 hours  0 minutes  2.0 seconds.
 File lengths (MBytes):  RWF=     10 Int=      0 D2E=      0 Chk=      2 Scr=      1
 Normal termination of Gaussian 16 at Mon Oct 10 14:39:58 2022.
