
 Working directory              : /scratch/ddi/mpscr/molpro.CW9leMazGJ/
 Global scratch directory       : /scratch/ddi/mpscr/molpro.CW9leMazGJ/
 Wavefunction directory         : /home/ddi/storage_4/Kemal/NH2OH/
 Main file repository           : /home/ddi/storage_4/Kemal/NH2OH/

 id        : liedlgroup

 Nodes     nprocs
 ae2-c724    12
 GA implementation: MPI file
 GA implementation (serial work in mppx): MPI file

 Using customized tuning parameters: mindgm=1; mindgv=20; mindgc=4; mindgr=1; noblas=0; minvec=7
 default implementation of scratch files=sf  


 Variables initialized (1015), CPU time= 0.01 sec
 ***,nh2oh (hydroxylamin) vibrational spectrum
 memory,256,m
 
 orient,mass
 geometry={
 H1
 O,H1,B1
 N,O,B2,H1,A1
 H2,N,B3,O,A2,H1,D1
 H3,N,B3,O,A2,H1,-D1
 }
  B1=                  1.08617963 ANG
  B2=                  1.08617963 ANG
  B3=                  1.08617963 ANG
  A1=                109.47122029 DEGREE
  A2=                109.47122029 DEGREE
  D1=                120.47122029 DEGREE
 
 mass,iso
 basis=vtz
 {hf
 start,atden}
 mp2
 optg
 {frequencies, symm=auto, print=0}
 put,molden,nh2oh_molden.dat
 Commands initialized (818), CPU time= 0.01 sec, 672 directives.
 Default parameters read. Elapsed time= 0.10 sec

 Checking input...
 Passed
1


                                         ***  PROGRAM SYSTEM MOLPRO  ***
                                       Copyright, TTI GmbH Stuttgart, 2015
                                    Version 2022.1 linked Jan 25 2022 12:44:58


 **********************************************************************************************************************************
 LABEL *   nh2oh (hydroxylamin) vibrational spectrum                                     
  64 bit mpp version                                                                     DATE: 23-Feb-22          TIME: 13:45:51  
 **********************************************************************************************************************************

 SHA1:             f3d4322b9bdbeed63a35be676bd653804e8a9433
 **********************************************************************************************************************************

 Memory per process:       256 MW
 Total memory per node:   3072 MW

 GA preallocation disabled
 GA check disabled

 Variable memory set to 256.0 MW

 ZCENTRE=MASS

 SETTING B1             =         1.08617963  ANG                             
 SETTING B2             =         1.08617963  ANG                             
 SETTING B3             =         1.08617963  ANG                             
 SETTING A1             =       109.47122029  DEGREE                          
 SETTING A2             =       109.47122029  DEGREE                          
 SETTING D1             =       120.47122029  DEGREE                          


 Using masses of most abundant isotopes

 **********************************************************************************************************************************
 SETTING BASIS          =    VTZ


 Recomputing integrals since basis changed


 Using spherical harmonics

 Library entry H      S cc-pVTZ              selected for orbital group  1
 Library entry H      P cc-pVTZ              selected for orbital group  1
 Library entry H      D cc-pVTZ              selected for orbital group  1
 Library entry O      S cc-pVTZ              selected for orbital group  2
 Library entry O      P cc-pVTZ              selected for orbital group  2
 Library entry O      D cc-pVTZ              selected for orbital group  2
 Library entry O      F cc-pVTZ              selected for orbital group  2
 Library entry N      S cc-pVTZ              selected for orbital group  3
 Library entry N      P cc-pVTZ              selected for orbital group  3
 Library entry N      D cc-pVTZ              selected for orbital group  3
 Library entry N      F cc-pVTZ              selected for orbital group  3


 PROGRAM * SEWARD (Integral evaluation for generally contracted gaussian basis sets)     Author: Roland Lindh, 1990

 Geometry written to block  1 of record 700

 Orientation using atomic masses  
 Molecule type: Asymmetric top
 Symmetry elements: Y
 Rotational constants:      38.1541074     39.1023160    179.2594098 GHz

 Point group  Cs  



 ATOMIC COORDINATES

 NR  ATOM    CHARGE       X              Y              Z

   1  H1      1.00   -1.590867353    0.000000000   -2.027320509
   2  O       8.00    0.185816129    0.000000000   -0.999464116
   3  N       7.00   -0.191028356    0.000000000    1.018227931
   4  H2      1.00    0.648022756   -1.667911770    1.870962660
   5  H3      1.00    0.648022756    1.667911770    1.870962660

 Bond lengths in Bohr (Angstrom)

 1-2  2.052582023  2-3  2.052582023  3-4  2.052582023  3-5  2.052582023
     ( 1.086179630)     ( 1.086179630)     ( 1.086179630)     ( 1.086179630)

 Bond angles

  1-2-3  109.47122029   2-3-4  109.47122029   2-3-5  109.47122029   4-3-5  108.69991459

 NUCLEAR CHARGE:                   18
 NUMBER OF PRIMITIVE AOS:         145
 NUMBER OF SYMMETRY AOS:          132
 NUMBER OF CONTRACTIONS:          102   (   64A'  +   38A"  )
 NUMBER OF INNER CORE ORBITALS:     0   (    0A'  +    0A"  )
 NUMBER OF OUTER CORE ORBITALS:     2   (    2A'  +    0A"  )
 NUMBER OF VALENCE ORBITALS:       11   (    8A'  +    3A"  )


 NUCLEAR REPULSION ENERGY   45.57967972

 Eigenvalues of metric

         1 0.136E-02 0.207E-02 0.274E-02 0.458E-02 0.663E-02 0.136E-01 0.149E-01 0.218E-01
         2 0.396E-02 0.112E-01 0.239E-01 0.371E-01 0.577E-01 0.732E-01 0.935E-01 0.118E+00


 Contracted 2-electron integrals neglected if value below      1.0D-11
 AO integral compression algorithm  1   Integral accuracy      1.0D-11

     39.846 MB (compressed) written to integral file ( 56.9%)

     Node minimum: 3.146 MB, node maximum: 3.670 MB


 NUMBER OF SORTED TWO-ELECTRON INTEGRALS:     583944.     BUFFER LENGTH:  32768
 NUMBER OF SEGMENTS:   1  SEGMENT LENGTH:     583944      RECORD LENGTH: 524288

 Memory used in sort:       1.14 MW

 SORT1 READ     8785223. AND WROTE      572391. INTEGRALS IN      2 RECORDS. CPU TIME:     0.09 SEC, REAL TIME:     0.10 SEC
 SORT2 READ     6936628. AND WROTE     7062991. INTEGRALS IN    168 RECORDS. CPU TIME:     0.01 SEC, REAL TIME:     0.03 SEC

 Node minimum:      583476.  Node maximum:      591128. integrals

 OPERATOR DM      FOR CENTER  0  COORDINATES:    0.000000    0.000000    0.000000


 **********************************************************************************************************************************
 DATASETS  * FILE   NREC   LENGTH (MB)   RECORD NAMES
              1      18       28.82       500      610      700      900      950      970     1000      129      960     1100   
                                          VAR    BASINP    GEOM    SYMINP    ZMAT    AOBASIS   BASIS     P2S    ABASIS      S 
                                         1400     1410     1200     1210     1080     1600     1650     1700   
                                           T        V       H0       H01     AOSYM     SMH    MOLCAS    OPER   

 PROGRAMS   *        TOTAL       INT
 CPU TIMES  *         0.53      0.41
 REAL TIME  *         0.88 SEC
 DISK USED  *        29.14 MB (local),      476.86 MB (total)
 GA USED    *         0.00 MB       (max)       0.00 MB       (current)
 **********************************************************************************************************************************


 Program * Restricted Hartree-Fock

 Orbital guess generated from atomic densities. Full valence occupancy:   10   3

 Initial occupancy:   7   2

 NELEC=   18   SYM=1   MS2= 0   THRE=1.0D-08   THRD=1.0D-06   THRG=1.0D-06  HFMA2=F  DIIS_START=2   DIIS_MAX=10   DIIS_INCORE=F

 Level shifts:    0.00 (CLOSED)    0.00 (OPEN)    0.30 (GAP_MIN)

 ITER           ETOT              DE          GRAD        DDIFF     DIIS  NEXP   TIME(IT)  TIME(TOT)  DIAG
   1     -130.86079696    -130.86079696     0.00D+00     0.11D+00     0     0       0.01      0.01    start
   2     -130.88939322      -0.02859625     0.86D-02     0.11D-01     1     0       0.00      0.01    diag
   3     -130.89276666      -0.00337344     0.34D-02     0.33D-02     2     0       0.01      0.02    diag
   4     -130.89328640      -0.00051974     0.11D-02     0.11D-02     3     0       0.00      0.02    diag
   5     -130.89333482      -0.00004843     0.24D-03     0.35D-03     4     0       0.00      0.02    diag
   6     -130.89333924      -0.00000441     0.56D-04     0.11D-03     5     0       0.00      0.02    diag
   7     -130.89333991      -0.00000067     0.23D-04     0.47D-04     6     0       0.01      0.03    diag
   8     -130.89334001      -0.00000011     0.80D-05     0.22D-04     7     0       0.00      0.03    fixocc
   9     -130.89334002      -0.00000001     0.18D-05     0.50D-05     8     0       0.00      0.03    diag
  10     -130.89334002      -0.00000000     0.43D-06     0.12D-05     9     0       0.00      0.03    diag/orth
  11     -130.89334002      -0.00000000     0.82D-07     0.25D-06     9     0       0.01      0.04    diag
  12     -130.89334002      -0.00000000     0.23D-07     0.52D-07     0     0       0.00      0.04    diag

 Final occupancy:   7   2

 !RHF STATE 1.1 Energy               -130.893340020520
  RHF One-electron energy            -269.437236886729
  RHF Two-electron energy              92.964217141743
  RHF Kinetic energy                  131.708862208518
  RHF Nuclear energy                   45.579679724466
  RHF Virial quotient                  -0.993808144917

 !RHF STATE 1.1 Dipole moment          -0.10106968     0.00000000    -0.03803319
 Dipole moment /Debye                  -0.25689349     0.00000000    -0.09667073

 Orbital energies:

           1.1          2.1          3.1          4.1          5.1          6.1          7.1          8.1          9.1
    -20.586215   -15.587162    -1.611350    -0.992707    -0.741577    -0.723321    -0.337802     0.143587     0.154795

           1.2          2.2          3.2          4.2
     -0.761430    -0.412838     0.210226     0.520013


 HOMO      7.1    -0.337802 =      -9.1921eV
 LUMO      8.1     0.143587 =       3.9072eV
 LUMO-HOMO         0.481389 =      13.0993eV

 Orbitals saved in record  2100.2


 **********************************************************************************************************************************
 DATASETS  * FILE   NREC   LENGTH (MB)   RECORD NAMES
              1      18       28.82       500      610      700      900      950      970     1000      129      960     1100   
                                          VAR    BASINP    GEOM    SYMINP    ZMAT    AOBASIS   BASIS     P2S    ABASIS      S 
                                         1400     1410     1200     1210     1080     1600     1650     1700   
                                           T        V       H0       H01     AOSYM     SMH    MOLCAS    OPER   

              2       4        0.49       700     1000      520     2100   
                                         GEOM     BASIS   MCVARS     RHF  

 PROGRAMS   *        TOTAL    HF-SCF       INT
 CPU TIMES  *         0.57      0.04      0.41
 REAL TIME  *         0.94 SEC
 DISK USED  *        29.74 MB (local),      484.16 MB (total)
 GA USED    *         0.00 MB       (max)       0.00 MB       (current)
 **********************************************************************************************************************************


 PROGRAM * MP2 (Closed-shell)     Authors: C. Hampel, H.-J. Werner, 1991, M. Deegan, P.J. Knowles, 1992


 Convergence thresholds:  THRVAR = 1.00D-12  THRDEN = 1.00D-08

 Number of core orbitals:           2 (   2   0 )
 Number of closed-shell orbitals:   7 (   5   2 )
 Number of external orbitals:      93 (  57  36 )

 Molecular orbitals read from record     2100.2  Type=RHF/CANONICAL  

 Number of N-1 electron functions:               7
 Number of N-2 electron functions:              28
 Number of singly external CSFs:               357
 Number of doubly external CSFs:            107268
 Total number of CSFs:                      107626

 Length of J-op  integral file:               0.00 MB
 Length of K-op  integral file:               0.38 MB

 Integral transformation finished. Total CPU:   0.02 sec, npass=  1  Memory used:   0.25 MW

 Memory needed for MP2:                      0.03 MW

 SCS-MP2 correlation energy:           -0.457342598080   (PS=  1.200000  PT=  0.333333)
 SCS-MP2 total energy:               -131.350682618600


  Reference energy                   -130.893340020520
  MP2 singlet pair energy              -0.292317799637
  MP2 triplet pair energy              -0.171259133328
  MP2 correlation energy               -0.463576932966

 !MP2 total energy                   -131.356916953486

 KEXT needed  1 integral passes. Memory used:   0.52 MW  CPU time:      0.02 sec

 CPHF start vector      0.2 not found

 Starting Coupled-perturbed Hartree-Fock, convergence threshold= 1.0D-06

 ITER   MIC  DIIS      VAR         VARC       CPU
   1     0     1    0.37D-01    0.16D-02     0.00
   2     6     2    0.31D-03    0.18D-03     0.01
   3     3     3    0.28D-04    0.26D-05     0.01
   4     4     4    0.15D-05    0.22D-06     0.01
   5     1     5    0.22D-06    0.45D-08     0.02

 CPHF convergence reached in  5 macroiterations and   14 microiterations.   Accuracy: 2.1897D-07

 CPHF solution written to record  4100.2

 Dipole moments (unrelaxed):           -0.09311471     0.00000000    -0.03846643
 Orbital relaxation contribution:       0.01915053    -0.00000000     0.01454614
 !MP2 STATE 1.1 Dipole moment          -0.07396418     0.00000000    -0.02392029
 Dipole moment /Debye                  -0.18799818     0.00000000    -0.06079932

 CPU-time for density and lagrangian:                  0.01 sec
 CPU-time for coupled-perturbed hartree-fock:          0.02 sec

 MP2 gradient info saved on record         5200.1


 **********************************************************************************************************************************
 DATASETS  * FILE   NREC   LENGTH (MB)   RECORD NAMES
              1      20       31.68       500      610      700      900      950      970     1000      129      960     1100   
                                          VAR    BASINP    GEOM    SYMINP    ZMAT    AOBASIS   BASIS     P2S    ABASIS      S 
                                         1400     1410     1200     1210     1080     1600     1650     1700     1380     5200   
                                           T        V       H0       H01     AOSYM     SMH    MOLCAS    OPER     JKOP      MP2  

              2       5        0.67       700     1000      520     2100     4100   
                                         GEOM     BASIS   MCVARS     RHF     CPHF   

 PROGRAMS   *        TOTAL       MP2    HF-SCF       INT
 CPU TIMES  *         0.70      0.11      0.04      0.41
 REAL TIME  *         1.09 SEC
 DISK USED  *        32.43 MB (local),      516.41 MB (total)
 SF USED    *         7.30 MB
 GA USED    *         0.00 MB       (max)       0.00 MB       (current)
 **********************************************************************************************************************************


 PROGRAM * OPT (Geometry optimization)     Authors: F. Eckert and H.-J. Werner


 BFGS update of hessian

 *** Long output written to logfile /media/storage_4_240T/ddi/Kemal/NH2OH/nh2oh.log ***


 Geometry optimization using default procedure for command MP2

 Geometry written to block  1 of record 700

 Making model hessian for Z-matrix coordinates

 Entering Rational Function Geometry Optimization

 ITER.   ENERGY(OLD)    ENERGY(NEW)      DE          GRADMAX     GRADNORM    GRADRMS     STEPMAX     STEPLEN     STEPRMS   CPU-time
   1  -131.35691695  -131.46804833    -0.11113138  0.58568635  0.59990847  0.24491161  0.28114105  0.29835621  0.04972604      0.77
   2  -131.46804833  -131.49798490    -0.02993657  0.18595540  0.20592870  0.08407004  0.15972922  0.23559710  0.03926618      1.53
   3  -131.49798490  -131.50455505    -0.00657015  0.07721245  0.08357352  0.03411875  0.11054249  0.13808448  0.02301408      2.32
   4  -131.50455505  -131.50713243    -0.00257738  0.02749606  0.04748804  0.01938691  0.06505145  0.08468782  0.01411464      3.07
   5  -131.50713243  -131.50809044    -0.00095801  0.01502231  0.02520033  0.01028799  0.04736384  0.07387120  0.01231187      3.82
   6  -131.50809044  -131.50819178    -0.00010134  0.00567595  0.00796273  0.00325077  0.02360031  0.02762915  0.00460486      4.61
   7  -131.50819178  -131.50819384    -0.00000206  0.00080316  0.00118784  0.00048493  0.00354827  0.00384586  0.00064098      5.37
   8  -131.50819384  -131.50819388    -0.00000004  0.00011671  0.00018831  0.00007688  0.00025395  0.00042424  0.00007071      6.13

 END OF GEOMETRY OPTIMIZATION.

 Optimized variables
 B1=                  0.95999410 ANG
 B2=                  1.44223931 ANG
 A1=                101.31250815 DEGREE
 B3=                  1.01433391 ANG
 A2=                103.40912491 DEGREE
 D1=                125.26632403 DEGREE

 **********************************************************************************************************************************

 Geometry written to block  1 of record 700

 Recomputing wavefunction for reoriented structure

 Current geometry (xyz format, in Angstrom)

    5
 MP2/VTZ  ENERGY=-131.50819388
 H         -0.8379408004        0.0000000000       -0.9996038193
 O          0.0754841887        0.0000000000       -0.7042337629
 N         -0.0904553595        0.0000000000        0.7284274974
 H          0.4483851932       -0.8056033352        1.0276387964
 H          0.4483851932        0.8056033352        1.0276387964

 **********************************************************************************************************************************


 **********************************************************************************************************************************
 DATASETS  * FILE   NREC   LENGTH (MB)   RECORD NAMES
              1      21       32.74       500      610      700      900      950      970     1000      129      960     1100   
                                          VAR    BASINP    GEOM    SYMINP    ZMAT    AOBASIS   BASIS     P2S    ABASIS      S 
                                         1400     1410     1200     1210     1080     1600     1650     1700     1380     5200   
                                           T        V       H0       H01     AOSYM     SMH    MOLCAS    OPER     JKOP      MP2  
                                         5201   
                                          MP2  

              2       6        0.73       700     1000      520     2100     4100     9001   
                                         GEOM     BASIS   MCVARS     RHF     CPHF    DEN_MP2    

 PROGRAMS   *        TOTAL      OPTG       MP2    HF-SCF       INT
 CPU TIMES  *         6.93      6.24      0.11      0.04      0.41
 REAL TIME  *         8.32 SEC
 DISK USED  *        33.53 MB (local),      529.62 MB (total)
 SF USED    *         7.44 MB
 GA USED    *         0.00 MB       (max)       0.00 MB       (current)
 **********************************************************************************************************************************


 PROGRAM * HESSIAN

 Computing numerical hessian using default procedure for command MP2

 Symmetry elements for unique displacements: Y  

 Using AUTO symmetry option

 Running default procedure: HF-SCF000  MP2


 Numerically approximating hessian using central gradient differences

 Task list generated. Total number of displacements:     21

 All  21 tasks completed.  CPU=      9.28 sec, Elapsed=      9.28 sec.

 MP2 hessian saved to record  5300.2

 PROGRAM * FREQUENCIES (Calculation of harmonic vibrational spectra for MP2)


 Permanent Dipole Moment [debye]
   1-  3    0.061154    0.000000    0.592523

 Dipole Moment Norm    0.5956700 [debye]

 Dipole Moment Derivatives [debye/ang]
              1             2             3             4             5             6             7             8
    1     0.8854519     0.0000000     0.0934222    -0.9874233     0.0000000    -0.2658104    -1.3035252     0.0000000
    2     0.0000000     1.5768158     0.0000000     0.0000000    -2.1358860     0.0000000     0.0000000    -0.6022051
    3     0.1589841     0.0000000     1.3040387     0.2228618     0.0000000    -2.7786665     0.4282765     0.0000000
              9            10            11            12            13            14            15
    1     0.4946455     0.7026358     0.3842174    -0.1611374     0.7026358    -0.3842174    -0.1611374
    2     0.0000000     0.6011949     0.5806017    -0.0558756    -0.6011949     0.5806017     0.0558756
    3     0.2486623    -0.4047849     0.0397072     0.6129245    -0.4047849    -0.0397072     0.6129245

 Projecting out rotations and translations

 Force Constants (Second Derivatives of the Energy) in [a.u.]
                             H1X1        H1Y1        H1Z1        OX2         OY2     
           H1X1          0.4907461
           H1Y1         -0.0000000   0.0044666
           H1Z1          0.1399937  -0.0000000   0.1118837
           OX2          -0.5007619   0.0000000  -0.0979097   0.5557614
           OY2          -0.0000000  -0.0014489   0.0000000   0.0000000   0.0383596
           OZ2          -0.1609298   0.0000000  -0.0689975   0.1451524  -0.0000000
           NX3           0.0084351   0.0000000  -0.0398789  -0.0571456  -0.0000000
           NY3           0.0000000  -0.0037726  -0.0000000  -0.0000000  -0.0528843
           NZ3           0.0186750  -0.0000000  -0.0294851   0.0038224  -0.0000000
           H2X4          0.0007903   0.0019689  -0.0011026   0.0010731  -0.0099650
           H2Y4         -0.0012298   0.0003775  -0.0008613  -0.0011237   0.0079868
           H2Z4          0.0011305   0.0033619  -0.0067006  -0.0255326   0.0295884
           H3X5          0.0007903  -0.0019689  -0.0011026   0.0010731   0.0099650
           H3Y5          0.0012298   0.0003775   0.0008613   0.0011237   0.0079868
           H3Z5          0.0011305  -0.0033619  -0.0067006  -0.0255326  -0.0295884
                             OZ2         NX3         NY3         NZ3         H2X4    
           OZ2           0.3699840
           NX3          -0.0028234   0.3402590
           NY3           0.0000000  -0.0000000   0.6459374
           NZ3          -0.2318261   0.1341596   0.0000000   0.3878631
           H2X4          0.0093004  -0.1457742   0.2007711  -0.0783285   0.1383655
           H2Y4         -0.0058035   0.1464689  -0.2946402   0.0791663  -0.1684453
           H2Z4         -0.0345802  -0.0457286   0.0583630  -0.0632760   0.0641158
           H3X5          0.0093004  -0.1457742  -0.2007711  -0.0783285   0.0055454
           H3Y5          0.0058035  -0.1464689  -0.2946402  -0.0791663  -0.0243298
           H3Z5         -0.0345802  -0.0457286  -0.0583630  -0.0632760   0.0060148
                             H2Y4        H2Z4        H3X5        H3Y5        H3Z5    
           H2Y4          0.3151958
           H2Z4         -0.0819074   0.0991510
           H3X5          0.0243298   0.0060148   0.1383655
           H3Y5         -0.0289200  -0.0094058   0.1684453   0.3151958
           H3Z5          0.0094058   0.0054058   0.0641158   0.0819074   0.0991510


 Atomic Masses
   1-  5    1.007825   15.994910   14.003070    1.007825    1.007825

 Mass weighted Second Derivative Matrix
                             H1X1        H1Y1        H1Z1        OX2         OY2     
           H1X1          0.4869359
           H1Y1         -0.0000000   0.0044319
           H1Z1          0.1389068  -0.0000000   0.1110150
           OX2          -0.1247234   0.0000000  -0.0243861   0.0347461
           OY2          -0.0000000  -0.0003609   0.0000000   0.0000000   0.0023982
           OZ2          -0.0400823   0.0000000  -0.0171850   0.0090749  -0.0000000
           NX3           0.0022454   0.0000000  -0.0106155  -0.0038184  -0.0000000
           NY3           0.0000000  -0.0010043  -0.0000000  -0.0000000  -0.0035337
           NZ3           0.0049711  -0.0000000  -0.0078487   0.0002554  -0.0000000
           H2X4          0.0007842   0.0019536  -0.0010940   0.0002673  -0.0024820
           H2Y4         -0.0012202   0.0003746  -0.0008546  -0.0002799   0.0019893
           H2Z4          0.0011218   0.0033358  -0.0066485  -0.0063593   0.0073695
           H3X5          0.0007842  -0.0019536  -0.0010940   0.0002673   0.0024820
           H3Y5          0.0012202   0.0003746   0.0008546   0.0002799   0.0019893
           H3Z5          0.0011218  -0.0033358  -0.0066485  -0.0063593  -0.0073695
                             OZ2         NX3         NY3         NZ3         H2X4    
           OZ2           0.0231314
           NX3          -0.0001887   0.0242989
           NY3           0.0000000  -0.0000000   0.0461283
           NZ3          -0.0154903   0.0095807   0.0000000   0.0276984
           H2X4          0.0023164  -0.0388040   0.0534438  -0.0208505   0.1372912
           H2Y4         -0.0014455   0.0389889  -0.0784310   0.0210735  -0.1671374
           H2Z4         -0.0086128  -0.0121726   0.0155358  -0.0168436   0.0636180
           H3X5          0.0023164  -0.0388040  -0.0534438  -0.0208505   0.0055023
           H3Y5          0.0014455  -0.0389889  -0.0784310  -0.0210735  -0.0241409
           H3Z5         -0.0086128  -0.0121726  -0.0155358  -0.0168436   0.0059681
                             H2Y4        H2Z4        H3X5        H3Y5        H3Z5    
           H2Y4          0.3127486
           H2Z4         -0.0812714   0.0983811
           H3X5          0.0241409   0.0059681   0.1372912
           H3Y5         -0.0286954  -0.0093328   0.1671374   0.3127486
           H3Z5          0.0093328   0.0053638   0.0636180   0.0812714   0.0983811


 Mass Weighted 2nd Derivative Matrix Eigenvalues
   1- 10    0.000000    0.000000    0.000000    0.000000    0.000000    0.000000    0.006389    0.034094    0.051614    0.067774
  11- 15    0.075595    0.105937    0.462067    0.487655    0.566501

 Mass Weighted 2nd Derivative Matrix Eigenvectors
              1             2             3             4             5             6             7             8
    1     0.2851100    -0.0028438    -0.0011754     0.0052265     0.0025097    -0.0024386     0.0000000    -0.0283353
    2    -0.0051977    -0.4633640     0.1923550     0.2226811    -0.1752661     0.1368295     0.8029507     0.0000000
    3    -0.1496278     0.0150242     0.1595138    -0.0066839     0.1345658     0.0041942     0.0000000    -0.0142926
    4     0.9288285     0.0151925     0.1285176    -0.0707637    -0.0133595     0.0041122     0.0000000     0.1072447
    5    -0.0055060     0.2852245     0.3608913     0.7228609    -0.4285509    -0.0420724    -0.2233012     0.0000000
    6     0.0440380    -0.0221635     0.2235543     0.2565974     0.6083175    -0.0260513     0.0000000    -0.6259830
    7    -0.0703410     0.1345788     0.7247577    -0.4818560    -0.1185057     0.0666000     0.0000000    -0.1943031
    8     0.0068611     0.1010212    -0.0420206     0.0839939     0.0220532     0.9073337    -0.0849971     0.0000000
    9    -0.0676038    -0.0067964     0.2791899     0.1919469     0.5569037    -0.0171070     0.0000000     0.7040463
   10    -0.0688266     0.5054259     0.1596454    -0.1597571    -0.0000756    -0.1484300     0.3291993     0.1626802
   11     0.0044208     0.3471111    -0.0814247    -0.0157807     0.0564253     0.1755709     0.2017330     0.0354596
   12     0.0787743     0.0145906    -0.0513272     0.0032395     0.2282778     0.1122240    -0.0047650    -0.0581263
   13    -0.0741844    -0.4197297     0.2969643    -0.1453598    -0.0753875     0.1911962    -0.3291993     0.1626802
   14     0.0044208     0.3471111    -0.0814247    -0.0157807     0.0564253     0.1755709     0.2017330    -0.0354596
   15     0.0745294    -0.0425270     0.0791352     0.1836282     0.0919216    -0.1340664     0.0047650    -0.0581263
              9            10            11            12            13            14            15
    1    -0.1510540     0.0000000    -0.2068401     0.0250198     0.0143714     0.0000000     0.9227284
    2     0.0000000     0.0670244     0.0000000     0.0000000     0.0000000    -0.0040995     0.0000000
    3     0.3836122     0.0000000     0.8210548    -0.1556036     0.0048567     0.0000000     0.2967175
    4     0.0161461     0.0000000     0.2081741    -0.0814412    -0.0015648     0.0000000    -0.2315025
    5     0.0000000     0.1747460     0.0000000     0.0000000     0.0000000     0.0045507     0.0000000
    6    -0.3294577     0.0000000     0.0295252    -0.0555042    -0.0051633     0.0000000    -0.0815199
    7     0.2312716     0.0000000    -0.2686372    -0.0850659     0.1742248     0.0000000    -0.0024318
    8     0.0000000    -0.2538046     0.0000000     0.0000000     0.0000000    -0.2924804     0.0000000
    9     0.0294231     0.0000000    -0.1905118    -0.1610335     0.1065834     0.0000000     0.0050138
   10    -0.3876684    -0.1017643     0.1894315     0.3082553    -0.3287813    -0.3636840     0.0042988
   11    -0.1239837     0.0914404     0.1275401     0.3640033     0.5783733     0.5380974    -0.0094962
   12     0.4096044     0.6569323    -0.1142713     0.4884879    -0.1907889    -0.1881328     0.0046765
   13    -0.3876684     0.1017643     0.1894315     0.3082553    -0.3287813     0.3636840     0.0042988
   14     0.1239837     0.0914404    -0.1275401    -0.3640033    -0.5783733     0.5380974     0.0094962
   15     0.4096044    -0.6569323    -0.1142713     0.4884879    -0.1907889     0.1881328     0.0046765

   Low Vibration      Wavenumber
        Nr             [1/cm] 
        1                0.00
        2                0.00
        3                0.00
        4                0.00
        5                0.00
        6                0.00

     Vibration        Wavenumber
        Nr             [1/cm] 
        1              410.89
        2              949.16
        3             1167.86
        4             1338.24
        5             1413.36
        6             1673.12
        7             3494.27
        8             3589.72
        9             3869.05

 FREQUENCIES * CALCULATION OF NORMAL MODES FOR MP2


 Atomic Coordinates

  Nr  Atom  Charge       X              Y              Z

   1   H1    1.00   -1.583478621    0.000000000   -1.888977452
   2   O     8.00    0.142644443    0.000000000   -1.330808940
   3   N     7.00   -0.170935856    0.000000000    1.376528472
   4   H2    1.00    0.847325213   -1.522369669    1.941955880
   5   H3    1.00    0.847325213    1.522369669    1.941955880

 Gradient norm at reference geometry: 0.20670D-03

 Normal Modes

                              1 A``       2 A`        3 A`        4 A``       5 A` 
 Wavenumbers [cm-1]          410.89      949.16     1167.86     1338.24     1413.36
 Intensities [km/mol]        172.81       10.06      135.82        0.06       24.68
 Intensities [relative]      100.00        5.82       78.60        0.03       14.28
           H1X1             0.00000    -0.02823    -0.15047    -0.00000    -0.20604
           H1Y1             0.79983    -0.00000     0.00000     0.06676    -0.00000
           H1Z1            -0.00000    -0.01424     0.38212     0.00000     0.81786
           OX2              0.00000     0.02682     0.00404     0.00000     0.05205
           OY2             -0.05583    -0.00000     0.00000     0.04369    -0.00000
           OZ2             -0.00000    -0.15652    -0.08238    -0.00000     0.00738
           NX3              0.00000    -0.05192     0.06180    -0.00000    -0.07179
           NY3             -0.02271    -0.00000    -0.00000    -0.06782     0.00000
           NZ3              0.00000     0.18814     0.00786    -0.00000    -0.05091
           H2X4             0.32792     0.16205    -0.38616    -0.10137     0.18869
           H2Y4             0.20095     0.03532    -0.12350     0.09108     0.12704
           H2Z4            -0.00475    -0.05790     0.40801     0.65438    -0.11383
           H3X5            -0.32792     0.16205    -0.38616     0.10137     0.18869
           H3Y5             0.20095    -0.03532     0.12350     0.09108    -0.12704
           H3Z5             0.00475    -0.05790     0.40801    -0.65438    -0.11383

                              6 A`        7 A`        8 A``       9 A` 
 Wavenumbers [cm-1]         1673.12     3494.27     3589.72     3869.05
 Intensities [km/mol]         16.42        0.58        2.56       48.50
 Intensities [relative]        9.50        0.34        1.48       28.07
           H1X1             0.02492     0.01432    -0.00000     0.91914
           H1Y1             0.00000     0.00000    -0.00408    -0.00000
           H1Z1            -0.15500     0.00484     0.00000     0.29556
           OX2             -0.02036    -0.00039    -0.00000    -0.05788
           OY2             -0.00000     0.00000     0.00114    -0.00000
           OZ2             -0.01388    -0.00129     0.00000    -0.02038
           NX3             -0.02273     0.04656    -0.00000    -0.00065
           NY3              0.00000    -0.00000    -0.07816     0.00000
           NZ3             -0.04303     0.02848    -0.00000     0.00134
           H2X4             0.30706    -0.32750    -0.36227     0.00428
           H2Y4             0.36259     0.57612     0.53600    -0.00946
           H2Z4             0.48659    -0.19005    -0.18740     0.00466
           H3X5             0.30706    -0.32750     0.36227     0.00428
           H3Y5            -0.36259    -0.57612     0.53600     0.00946
           H3Z5             0.48659    -0.19005     0.18740     0.00466


 Normal Modes of low/zero frequencies

                                  1           2           3           4           5
 Wavenumbers [cm-1]            0.00        0.00        0.00        0.00        0.00
 Intensities [km/mol]          0.00        0.00        0.00        0.00        0.00
 Intensities [relative]        0.00        0.00        0.00        0.00        0.00
           H1X1             0.28400    -0.00283    -0.00117     0.00521     0.00250
           H1Y1            -0.00518    -0.46156     0.19161     0.22181    -0.17458
           H1Z1            -0.14905     0.01497     0.15889    -0.00666     0.13404
           OX2              0.23224     0.00380     0.03213    -0.01769    -0.00334
           OY2             -0.00138     0.07132     0.09024     0.18074    -0.10715
           OZ2              0.01101    -0.00554     0.05590     0.06416     0.15210
           NX3             -0.01880     0.03596     0.19368    -0.12877    -0.03167
           NY3              0.00183     0.02700    -0.01123     0.02245     0.00589
           NZ3             -0.01807    -0.00182     0.07461     0.05129     0.14882
           H2X4            -0.06856     0.50346     0.15902    -0.15914    -0.00008
           H2Y4             0.00440     0.34576    -0.08111    -0.01572     0.05621
           H2Z4             0.07847     0.01453    -0.05113     0.00323     0.22739
           H3X5            -0.07390    -0.41810     0.29581    -0.14479    -0.07509
           H3Y5             0.00440     0.34576    -0.08111    -0.01572     0.05621
           H3Z5             0.07424    -0.04236     0.07883     0.18291     0.09156

                                  6
 Wavenumbers [cm-1]            0.00
 Intensities [km/mol]          0.00
 Intensities [relative]        0.00
           H1X1            -0.00243
           H1Y1             0.13630
           H1Z1             0.00418
           OX2              0.00103
           OY2             -0.01052
           OZ2             -0.00651
           NX3              0.01780
           NY3              0.24247
           NZ3             -0.00457
           H2X4            -0.14785
           H2Y4             0.17489
           H2Z4             0.11179
           H3X5             0.19045
           H3Y5             0.17489
           H3Z5            -0.13354


 Frequencies dumped to record   5400.2

 Zero point energy:  0.04079214 [H]     8952.84 [1/CM]      107.10 [KJ/MOL]
 Frequency information read from record  5400.2

 Recomputing wavefunction at initial geometry


 **********************************************************************************************************************************
 DATASETS  * FILE   NREC   LENGTH (MB)   RECORD NAMES
              1      20       31.68       500      610      700      900      950      970     1000      129      960     1100   
                                          VAR    BASINP    GEOM    SYMINP    ZMAT    AOBASIS   BASIS     P2S    ABASIS      S 
                                         1400     1410     1200     1210     1080     1600     1650     1700     1380     5200   
                                           T        V       H0       H01     AOSYM     SMH    MOLCAS    OPER     JKOP      MP2  

              2       9        0.74       700     1000      520     2100     4100     9001     5300     5450     5400   
                                         GEOM     BASIS   MCVARS     RHF     CPHF    DEN_MP2   HESS     NMOD     FREQ   

 PROGRAMS   *        TOTAL      FREQ      OPTG       MP2    HF-SCF       INT
 CPU TIMES  *        16.35      9.41      6.24      0.11      0.04      0.41
 REAL TIME  *        18.31 SEC
 DISK USED  *       146.19 MB (local),        2.51 GB (total)
 SF USED    *         7.45 MB
 GA USED    *         0.00 MB       (max)       0.00 MB       (current)
 **********************************************************************************************************************************

 Dump information in style MOLDEN to nh2oh_molden.dat                                                                

 Molecular orbitals read from record     2100.2  Type=RHF/CANONICAL (state 1.1)
 Occupation numbers read from record     2100.2  Type=RHF/RHF (state 1.1)
 Orbital energies read from record       2100.2  Type=RHF/CANONICAL (state 1.1)
 Redundancy group numbers read from rec  2100.2  Type=RHF/RHF (state 1.1)

 DUMP ORBITAL  1.1 AS ORBITAL    1  occ=    2.0000  eig=  -20.5804  GROUP=   2
 DUMP ORBITAL  2.1 AS ORBITAL    2  occ=    2.0000  eig=  -15.6025  GROUP=   2
 DUMP ORBITAL  3.1 AS ORBITAL    3  occ=    2.0000  eig=   -1.3907  GROUP=   2
 DUMP ORBITAL  4.1 AS ORBITAL    4  occ=    2.0000  eig=   -1.0793  GROUP=   2
 DUMP ORBITAL  1.2 AS ORBITAL    5  occ=    2.0000  eig=   -0.6860  GROUP=   2
 DUMP ORBITAL  5.1 AS ORBITAL    6  occ=    2.0000  eig=   -0.6707  GROUP=   2
 DUMP ORBITAL  6.1 AS ORBITAL    7  occ=    2.0000  eig=   -0.6127  GROUP=   2
 DUMP ORBITAL  2.2 AS ORBITAL    8  occ=    2.0000  eig=   -0.4798  GROUP=   2
 DUMP ORBITAL  7.1 AS ORBITAL    9  occ=    2.0000  eig=   -0.4294  GROUP=   2

 Total charge:      18.000000
 Frequency information read from record  5400.2

 **********************************************************************************************************************************

 MP2/cc-pVTZ energy=   -131.508193875808

       OPTG(MP2)             MP2          HF-SCF
   -131.50819387   -131.35691695   -130.89334002
 **********************************************************************************************************************************
 Molpro calculation terminated
