
 Working directory              : /scratch/koe/tmpdir_768867/molpro.ZTKMZ4OaxT/
 Global scratch directory       : /scratch/koe/tmpdir_768867/molpro.ZTKMZ4OaxT/
 Wavefunction directory         : /home/koe/final_calc_paper/c6h12/
 Main file repository           : /home/koe/final_calc_paper/c6h12/

 id        : liedlgroup

 Nodes     nprocs
 rune04      10
 GA implementation: MPI file
 GA implementation (serial work in mppx): MPI file

 Using customized tuning parameters: mindgm=1; mindgv=20; mindgc=4; mindgr=1; noblas=0; minvec=7
 default implementation of scratch files=sf  


 Variables initialized (1015), CPU time= 0.03 sec
 ***,c6h12 in chair conformation
 memory, 2000, m
 gthresh,optgrad=1.d-7,twoint=1.d-14,prefac=1.d-16
 orient,mass
 geomtyp=xyz
 geometry={
 18                                                                              ! number of atoms
 C1,          0.2279537760,       -1.4181258549,       0.3430606844
 C2,         -0.2284742561,       -0.4119487780,       1.3995689595
 C3,          0.2282111099,        1.0060611608,       1.0566186946
 C4,         -0.2279543932,        1.4181215084,      -0.3430412275
 C5,          0.2284736480,        0.4119761896,      -1.3995797431
 C6,         -0.2282117315,       -1.0061075755,      -1.0566116206
 H1,         -0.1551325943,        1.7027103815,       1.7968002417
 H2,         -1.3120425417,       -0.4277433028,       1.4755397322
 H3,          0.1546847054,       -0.7047630030,       2.3730114563
 H4,          1.3114961563,       -1.4921623481,       0.3674689355
 H5,         -0.1555434784,       -2.4074359045,       0.5761631009
 H6,         -1.3114950397,        1.4921866217,      -0.3674396121
 H7,          0.1555667326,        2.4074266509,      -0.5761251950
 H8,         -0.1546853105,        0.7048196719,      -2.3730134400
 H9,          1.3120419338,        0.4277730025,      -1.4755500362
 H10,         -1.3117654231,       -1.0549320028,       -1.1171824685
 H11,          0.1551295029,       -1.7114508612,       -1.7885143478
 H12,          1.3117673477,        1.0638491136,        1.1086541322
 }
 
 mass,iso
 basis=6-311g(d,p)
 
 {hf
 start,atden}
 
 
 optg
 {frequencies, symm=auto, print=0,analytical}
 put,molden, c6h12.molden
 Commands initialized (818), CPU time= 0.01 sec, 672 directives.
 Default parameters read. Elapsed time= 0.46 sec

 Checking input...
 Passed
1


                                         ***  PROGRAM SYSTEM MOLPRO  ***
                                       Copyright, TTI GmbH Stuttgart, 2015
                                    Version 2022.1 linked Jan 25 2022 12:44:58


 **********************************************************************************************************************************
 LABEL *   c6h12 in chair conformation                                                   
  64 bit mpp version                                                                     DATE: 25-Aug-23          TIME: 15:43:24  
 **********************************************************************************************************************************

 SHA1:             f3d4322b9bdbeed63a35be676bd653804e8a9433
 **********************************************************************************************************************************

 Memory per process:      2000 MW
 Total memory per node:  20000 MW

 GA preallocation disabled
 GA check disabled

 Variable memory set to 2000.0 MW


 THRESHOLDS:

 ZERO    =  1.00D-12  ONEINT  =  1.00D-12  TWOINT  =  1.00D-14  PREFAC  =  1.00D-16  XXXXXX  =  1.00D-09  EORDER  =  1.00D-04
 ENERGY  =  0.00D+00  ETEST   =  0.00D+00  EDENS   =  0.00D+00  THRDEDEF=  1.00D-06  GRADIENT=  1.00D-05  STEP    =  1.00D-03
 ORBITAL =  1.00D-05  CIVEC   =  1.00D-05  COEFF   =  1.00D-04  PRINTCI =  5.00D-02  PUNCHCI =  9.90D+01  OPTGRAD =  1.00D-07
 OPTENERG=  1.00D-06  OPTSTEP =  3.00D-04  THRGRAD =  1.00D-10  COMPRESS=  1.00D-11  VARMIN  =  1.00D-07  VARMAX  =  1.00D-03
 THRDOUB =  0.00D+00  THRDIV  =  1.00D-05  THRRED  =  1.00D-07  THRPSP  =  1.00D+00  THRDC   =  1.00D-10  THRCS   =  1.00D-10
 THRNRM  =  1.00D-08  THREQ   =  0.00D+00  THRDE   =  1.00D+00  THRREF  =  1.00D-05  SPARFAC =  1.00D+00  THRDLP  =  1.00D-07
 THRDIA  =  1.00D-10  THRDLS  =  1.00D-07  THRGPS  =  0.00D+00  THRKEX  =  0.00D+00  THRDIS  =  2.00D-01  THRVAR  =  1.00D-10
 THRLOC  =  1.00D-06  THRGAP  =  1.00D-06  THRLOCT = -1.00D+00  THRGAPT = -1.00D+00  THRORB  =  1.00D-06  THRMLTP =  0.00D+00
 THRCPQCI=  1.00D-10  KEXTA   =  0.00D+00  THRCOARS=  0.00D+00  SYMTOL  =  1.00D-06  GRADTOL =  1.00D-06  THROVL  =  1.00D-08
 THRORTH =  1.00D-08  THRDLOVL= -1.00D+00  GRID    =  1.00D-06  GRIDMAX =  1.00D-03  DTMAX   =  0.00D+00  THROCCDE=  1.00D-01
 THROCCDE=  1.00D-01  THRPRINT=  2.50D-01

 SETTING GEOMTYP        =    XYZ
 ZCENTRE=MASS



 Using masses of most abundant isotopes

 **********************************************************************************************************************************
 SETTING BASIS          =    6-311G(D,P)


 Recomputing integrals since basis changed


 Using spherical harmonics

 Library entry C      S 6-311G               selected for orbital group  1
 Library entry C      P 6-311G               selected for orbital group  1
 Library entry C      D 6-311G*              selected for orbital group  1
 Library entry H      S 6-311G               selected for orbital group  2
 Library entry H      P 6-311G**             selected for orbital group  2


 PROGRAM * SEWARD (Integral evaluation for generally contracted gaussian basis sets)     Author: Roland Lindh, 1990

 Geometry written to block  1 of record 700

 Orientation using atomic masses  
 Molecule type: Asymmetric top
 Rotational constants:       4.3339715      2.4701688      4.3348440 GHz

 Point group  C1  



 ATOMIC COORDINATES

 NR  ATOM    CHARGE       X              Y              Z

   1  C1      6.00    0.648290899    0.430770206   -2.679869437
   2  C2      6.00    2.644802073   -0.431753771   -0.778470209
   3  C3      6.00    1.996719837    0.431256496    1.901180179
   4  C4      6.00   -0.648254131   -0.430771372    2.679861223
   5  C5      6.00   -2.644822451    0.431752621    0.778522009
   6  C6      6.00   -1.996706469   -0.431257671   -1.901267890
   7  H1      1.00    3.395460164   -0.293158116    3.217656495
   8  H2      1.00    2.788366028   -2.479401068   -0.808317526
   9  H3      1.00    4.484341823    0.292311729   -1.331808789
  10  H4      1.00    0.694415817    2.478368549   -2.819778130
  11  H5      1.00    1.088790738   -0.293934575   -4.549394457
  12  H6      1.00   -0.694360404   -2.478366439    2.819824000
  13  H7      1.00   -1.088719106    0.293978519    4.549376970
  14  H8      1.00   -4.484345572   -0.292312872    1.331915877
  15  H9      1.00   -2.788385500    2.479399919    0.808373650
  16  H10     1.00   -2.111168777   -2.478877389   -1.993532692
  17  H11     1.00   -3.379802093    0.293152274   -3.234173607
  18  H12     1.00    2.095052556    2.478881026    2.010383589

 Bond lengths in Bohr (Angstrom)

  1- 2  2.888827358   1- 6  2.888827358   1-10  2.052890870   1-11  2.052890870   2- 3  2.888827358
       ( 1.528701604)       ( 1.528701604)       ( 1.086343065)       ( 1.086343065)       ( 1.528701604)

  2- 8  2.052890870   2- 9  2.052890870   3- 4  2.888827358   3- 7  2.052890870   3-18  2.052890870
       ( 1.086343065)       ( 1.086343065)       ( 1.528701604)       ( 1.086343065)       ( 1.086343065)

  4- 5  2.888827358   4-12  2.052890870   4-13  2.052890870   5- 6  2.888964346   5-14  2.052890870
       ( 1.528701604)       ( 1.086343065)       ( 1.086343065)       ( 1.528774095)       ( 1.086343065)

  5-15  2.052890870   6-16  2.052890870   6-17  2.052890870
       ( 1.086343065)       ( 1.086343065)       ( 1.086343065)

 Bond angles

  1-2-3  111.48703854   1-2-8  109.66813578   1-2-9  109.66813578   1-6-5  111.48596901

  1- 6-16  109.66813577   1- 6-17  109.66813578   2- 1- 6  111.48703854   2- 1-10  109.09476044

  2- 1-11  110.22473501   2- 3- 4  111.48703854   2- 3- 7  109.66813577   2- 3-18  109.66813577

  3- 2- 8  109.09605105   3- 2- 9  110.22345505   3- 4- 5  111.48703854   3- 4-12  109.66813578

  3- 4-13  109.66813577   4- 3- 7  110.22345505   4- 3-18  109.09605105   4- 5- 6  111.48596901

  4- 5-14  109.66813577   4- 5-15  109.66813578   5- 4-12  109.09605105   5- 4-13  110.22345505

  5- 6-16  109.09531556   5- 6-17  110.22530239   6- 1-10  109.66813577   6- 1-11  109.66813577

  6- 5-14  110.22530239   6- 5-15  109.09531556   7- 3-18  106.57204863   8- 2- 9  106.57204863

 10- 1-11  106.57204863  12- 4-13  106.57204863  14- 5-15  106.57204863  16- 6-17  106.57204864

 NUCLEAR CHARGE:                   48
 NUMBER OF PRIMITIVE AOS:         288
 NUMBER OF SYMMETRY AOS:          282
 NUMBER OF CONTRACTIONS:          180   (  180A   )
 NUMBER OF INNER CORE ORBITALS:     0   (    0A   )
 NUMBER OF OUTER CORE ORBITALS:     6   (    6A   )
 NUMBER OF VALENCE ORBITALS:       36   (   36A   )


 NUCLEAR REPULSION ENERGY  256.66633455


 Eigenvalues of metric

         1 0.139E-02 0.140E-02 0.223E-02 0.322E-02 0.325E-02 0.106E-01 0.106E-01 0.110E-01


 Contracted 2-electron integrals neglected if value below      1.0D-14
 AO integral compression algorithm  1   Integral accuracy      1.0D-14

     734.265 MB (compressed) written to integral file ( 64.4%)

     Node minimum: 42.467 MB, node maximum: 86.770 MB


 NUMBER OF SORTED TWO-ELECTRON INTEGRALS:   13276350.     BUFFER LENGTH:  32768
 NUMBER OF SEGMENTS:   1  SEGMENT LENGTH:   13276350      RECORD LENGTH: 524288

 Memory used in sort:      13.83 MW

 SORT1 READ   142559343. AND WROTE    12403831. INTEGRALS IN     36 RECORDS. CPU TIME:     4.01 SEC, REAL TIME:     4.24 SEC
 SORT2 READ   124034574. AND WROTE   132690195. INTEGRALS IN   1620 RECORDS. CPU TIME:     0.23 SEC, REAL TIME:     0.44 SEC

 Node minimum:    13261689.  Node maximum:    13276350. integrals

 OPERATOR DM      FOR CENTER  0  COORDINATES:    0.000000    0.000000    0.000000


 **********************************************************************************************************************************
 DATASETS  * FILE   NREC   LENGTH (MB)   RECORD NAMES
              1      18       30.02       500      610      700      900      950      970     1000      129      960     1100   
                                          VAR    BASINP    GEOM    SYMINP    ZMAT    AOBASIS   BASIS     P2S    ABASIS      S 
                                         1400     1410     1200     1210     1080     1600     1650     1700   
                                           T        V       H0       H01     AOSYM     SMH    MOLCAS    OPER   

 PROGRAMS   *        TOTAL       INT
 CPU TIMES  *         7.79      7.51
 REAL TIME  *         9.79 SEC
 DISK USED  *        30.60 MB (local),        2.39 GB (total)
 GA USED    *         0.00 MB       (max)       0.00 MB       (current)
 **********************************************************************************************************************************


 Program * Restricted Hartree-Fock

 Orbital guess generated from atomic densities. Full valence occupancy:   24

 Initial occupancy:  24

 NELEC=   48   SYM=1   MS2= 0   THRE=1.0D-08   THRD=1.0D-06   THRG=1.0D-06  HFMA2=F  DIIS_START=2   DIIS_MAX=10   DIIS_INCORE=F

 Level shifts:    0.00 (CLOSED)    0.00 (OPEN)    0.30 (GAP_MIN)

 ITER           ETOT              DE          GRAD        DDIFF     DIIS  NEXP   TIME(IT)  TIME(TOT)  DIAG
   1     -234.18107752    -234.18107752     0.00D+00     0.27D-01     0     0       0.13      0.33    start
   2     -234.25115540      -0.07007788     0.37D-02     0.27D-02     1     0       0.15      0.48    diag
   3     -234.26159344      -0.01043804     0.16D-02     0.13D-02     2     0       0.16      0.64    diag
   4     -234.26338810      -0.00179466     0.56D-03     0.52D-03     3     0       0.15      0.79    diag
   5     -234.26341765      -0.00002955     0.56D-04     0.12D-03     4     0       0.15      0.94    diag
   6     -234.26341844      -0.00000079     0.11D-04     0.18D-04     5     0       0.15      1.09    diag
   7     -234.26341847      -0.00000002     0.16D-05     0.30D-05     6     0       0.14      1.23    diag
   8     -234.26341847      -0.00000000     0.19D-06     0.25D-06     7     0       0.18      1.41    fixocc
   9     -234.26341847      -0.00000000     0.39D-07     0.37D-07     0     0       0.16      1.57    diag

 Final occupancy:  24

 !RHF STATE 1.1 Energy               -234.263418466074
  RHF One-electron energy            -823.762107625186
  RHF Two-electron energy             332.832354606564
  RHF Kinetic energy                  234.258506119897
  RHF Nuclear energy                  256.666334552548
  RHF Virial quotient                  -1.000020969767

 !RHF STATE 1.1 Dipole moment           0.00026985     0.00000385    -0.00026380
 Dipole moment /Debye                   0.00068588     0.00000979    -0.00067051

 Orbital energies:

           1.1          2.1          3.1          4.1          5.1          6.1          7.1          8.1          9.1         10.1
    -11.209653   -11.209398   -11.209326   -11.208781   -11.208710   -11.208423    -1.112888    -1.001404    -1.001364    -0.828673

          11.1         12.1         13.1         14.1         15.1         16.1         17.1         18.1         19.1         20.1
     -0.828635    -0.750824    -0.647651    -0.607965    -0.597527    -0.596846    -0.523471    -0.523451    -0.511801    -0.482113

          21.1         22.1         23.1         24.1         25.1         26.1
     -0.481520    -0.449574    -0.424699    -0.424011     0.155477     0.172155


 HOMO     24.1    -0.424011 =     -11.5379eV
 LUMO     25.1     0.155477 =       4.2307eV
 LUMO-HOMO         0.579487 =      15.7687eV

 Orbitals saved in record  2100.2


 **********************************************************************************************************************************
 DATASETS  * FILE   NREC   LENGTH (MB)   RECORD NAMES
              1      18       30.02       500      610      700      900      950      970     1000      129      960     1100   
                                          VAR    BASINP    GEOM    SYMINP    ZMAT    AOBASIS   BASIS     P2S    ABASIS      S 
                                         1400     1410     1200     1210     1080     1600     1650     1700   
                                           T        V       H0       H01     AOSYM     SMH    MOLCAS    OPER   

              2       4        1.15       700     1000      520     2100   
                                         GEOM     BASIS   MCVARS     RHF  

 PROGRAMS   *        TOTAL    HF-SCF       INT
 CPU TIMES  *         9.37      1.57      7.51
 REAL TIME  *        11.63 SEC
 DISK USED  *        33.22 MB (local),        2.42 GB (total)
 GA USED    *         0.00 MB       (max)       0.00 MB       (current)
 **********************************************************************************************************************************


 PROGRAM * OPT (Geometry optimization)     Authors: F. Eckert and H.-J. Werner


 BFGS update of hessian

 *** Long output written to logfile /home/koe/final_calc_paper/c6h12/c6h12.log ***


 Geometry optimization using default procedure for command HF-SCF

 Geometry written to block  1 of record 700

 Making model hessian for cartesian coordinates

 Entering Rational Function Geometry Optimization

 ITER.   ENERGY(OLD)    ENERGY(NEW)      DE          GRADMAX     GRADNORM    GRADRMS     STEPMAX     STEPLEN     STEPRMS   CPU-time
   1  -234.26341847  -234.26355695    -0.00013848  0.00516915  0.01039274  0.00021652  0.02040033  0.04688782  0.01105157     13.08
   2  -234.26355695  -234.26357237    -0.00001542  0.00165579  0.00231564  0.00004824  0.00922225  0.02051130  0.00483456     22.32
   3  -234.26357237  -234.26357461    -0.00000225  0.00024787  0.00073307  0.00001527  0.00711321  0.00882620  0.00208036     31.68
   4  -234.26357461  -234.26357610    -0.00000149  0.00019567  0.00038492  0.00000802  0.00925526  0.00964473  0.00227328     41.01
   5  -234.26357610  -234.26357677    -0.00000066  0.00012615  0.00029829  0.00000621  0.00986893  0.01014687  0.00239164     50.06
   6  -234.26357677  -234.26357681    -0.00000004  0.00008131  0.00014202  0.00000296  0.00103192  0.00122745  0.00028931     59.52
   7  -234.26357681  -234.26357681    -0.00000001  0.00002711  0.00005007  0.00000104  0.00016764  0.00042996  0.00010134     68.52
   8  -234.26357681  -234.26357681    -0.00000000  0.00000512  0.00001401  0.00000029  0.00011855  0.00022625  0.00005333     77.53
   9  -234.26357681  -234.26357681    -0.00000000  0.00000614  0.00000899  0.00000019  0.00005429  0.00011505  0.00002712     86.52
  10  -234.26357681  -234.26357681    -0.00000000  0.00000213  0.00000369  0.00000008  0.00004319  0.00006164  0.00001453     95.26
  11  -234.26357681  -234.26357681    -0.00000000  0.00000062  0.00000195  0.00000004  0.00006810  0.00009627  0.00002269    103.97
  12  -234.26357681  -234.26357681    -0.00000000  0.00000252  0.00000361  0.00000008  0.00005449  0.00007884  0.00001858    112.51
  13  -234.26357681  -234.26357681    -0.00000000  0.00000187  0.00000306  0.00000006  0.00003653  0.00005486  0.00001293    121.51
  14  -234.26357681  -234.26357681     0.00000000  0.00000054  0.00000124  0.00000003  0.00003145  0.00004391  0.00001035    130.37
  15  -234.26357681  -234.26357681    -0.00000000  0.00000032  0.00000073  0.00000002  0.00001523  0.00002192  0.00000517    139.22
  16  -234.26357681  -234.26357681     0.00000000  0.00000021  0.00000051  0.00000001  0.00000274  0.00000441  0.00000104    147.85
  17  -234.26357681  -234.26357681    -0.00000000  0.00000009  0.00000018  0.00000000  0.00000214  0.00000308  0.00000073    156.69

 END OF GEOMETRY OPTIMIZATION.
 *** Symmetry of molecule has changed ***

 Geometry written to block  1 of record 700

 Recomputing wavefunction for reoriented structure

 Current geometry (xyz format, in Angstrom)

   18
 HF-SCF000/6-311G(D,P)  ENERGY=-234.26357681
 C         -0.0000005874        0.2283665317       -1.4617070393
 C          1.2658754447       -0.2283665562       -0.7308534264
 C          1.2658747901        0.2283681356        0.7308536136
 C         -0.0000000835       -0.2283697163        1.4617060144
 C         -1.2658742515        0.2283697310        0.7308535187
 C         -1.2658754447       -0.2283681298       -0.7308524511
 H          2.1489015647       -0.1486291376        1.2406687589
 H          1.3268410329       -1.3159587191       -0.7660508140
 H          2.1489007213        0.1486338939       -1.2406688027
 H         -0.0000014491        1.3159587032       -1.5321033803
 H         -0.0000005436       -0.1486337702       -2.4813371091
 H         -0.0000010440       -1.3159623450        1.5320955292
 H          0.0000003466        0.1486244158        2.4813383712
 H         -2.1489017542       -0.1486245292        1.2406696298
 H         -1.3268330027        1.3159623561        0.7660490771
 H         -1.3268384645       -1.3159605263       -0.7660473898
 H         -2.1489018175        0.1486291729       -1.2406682683
 H          1.3268359864        1.3159605341        0.7660516607

 **********************************************************************************************************************************


 **********************************************************************************************************************************
 DATASETS  * FILE   NREC   LENGTH (MB)   RECORD NAMES
              1      18       30.02       500      610      700      900      950      970     1000      129      960     1100   
                                          VAR    BASINP    GEOM    SYMINP    ZMAT    AOBASIS   BASIS     P2S    ABASIS      S 
                                         1400     1410     1200     1210     1080     1600     1650     1700   
                                           T        V       H0       H01     AOSYM     SMH    MOLCAS    OPER   

              2       4        1.15       700     1000      520     2100   
                                         GEOM     BASIS   MCVARS     RHF  

 PROGRAMS   *        TOTAL      OPTG    HF-SCF       INT
 CPU TIMES  *       172.97    163.60      1.57      7.51
 REAL TIME  *       189.47 SEC
 DISK USED  *        33.47 MB (local),        2.44 GB (total)
 SF USED    *         0.11 MB
 GA USED    *         0.00 MB       (max)       0.00 MB       (current)
 **********************************************************************************************************************************


 PROGRAM * HESSIAN

 PROGRAM * MCKINLEY (Hessian of the energy)     Author: A. Bernhardsson, R. Lindh

 Orbitals from record         2100.2

 Number of closed-shell orbitals: 24 ( 24 )
 Number of occupied orbitals:     24 ( 24 )

 Number of electrons= 48     Singlet     Space symmetry=1      Wavefunction type: CLOSED          


 McKinley needed     40.14 seconds of CPU time

 Entering CPHF calculation

 CPHF needed 436 iterations for 54 perturbations.  Total CPU time:   88.04 sec


 HF-SCF hessian saved to record  5300.2

 PROGRAM * FREQUENCIES (Calculation of harmonic vibrational spectra for HF-SCF)


 Permanent Dipole Moment [debye]
   1-  3    0.000000    0.000000    0.000000

 Dipole Moment Norm    0.0000000 [debye]

 Dipole Moment Derivatives [debye/ang]
              1             2             3             4             5             6             7             8
    1     0.0000000     0.0000000     0.0000000     0.0000000     0.0000000     0.0000000     0.0000000     0.0000000
    2     0.0000000     0.0000000     0.0000000     0.0000000     0.0000000     0.0000000     0.0000000     0.0000000
    3     0.0000000     0.0000000     0.0000000     0.0000000     0.0000000     0.0000000     0.0000000     0.0000000
              9            10            11            12            13            14            15            16
    1     0.0000000     0.0000000     0.0000000     0.0000000     0.0000000     0.0000000     0.0000000     0.0000000
    2     0.0000000     0.0000000     0.0000000     0.0000000     0.0000000     0.0000000     0.0000000     0.0000000
    3     0.0000000     0.0000000     0.0000000     0.0000000     0.0000000     0.0000000     0.0000000     0.0000000
             17            18            19            20            21            22            23            24
    1     0.0000000     0.0000000     0.0000000     0.0000000     0.0000000     0.0000000     0.0000000     0.0000000
    2     0.0000000     0.0000000     0.0000000     0.0000000     0.0000000     0.0000000     0.0000000     0.0000000
    3     0.0000000     0.0000000     0.0000000     0.0000000     0.0000000     0.0000000     0.0000000     0.0000000
             25            26            27            28            29            30            31            32
    1     0.0000000     0.0000000     0.0000000     0.0000000     0.0000000     0.0000000     0.0000000     0.0000000
    2     0.0000000     0.0000000     0.0000000     0.0000000     0.0000000     0.0000000     0.0000000     0.0000000
    3     0.0000000     0.0000000     0.0000000     0.0000000     0.0000000     0.0000000     0.0000000     0.0000000
             33            34            35            36            37            38            39            40
    1     0.0000000     0.0000000     0.0000000     0.0000000     0.0000000     0.0000000     0.0000000     0.0000000
    2     0.0000000     0.0000000     0.0000000     0.0000000     0.0000000     0.0000000     0.0000000     0.0000000
    3     0.0000000     0.0000000     0.0000000     0.0000000     0.0000000     0.0000000     0.0000000     0.0000000
             41            42            43            44            45            46            47            48
    1     0.0000000     0.0000000     0.0000000     0.0000000     0.0000000     0.0000000     0.0000000     0.0000000
    2     0.0000000     0.0000000     0.0000000     0.0000000     0.0000000     0.0000000     0.0000000     0.0000000
    3     0.0000000     0.0000000     0.0000000     0.0000000     0.0000000     0.0000000     0.0000000     0.0000000
             49            50            51            52            53            54
    1     0.0000000     0.0000000     0.0000000     0.0000000     0.0000000     0.0000000
    2     0.0000000     0.0000000     0.0000000     0.0000000     0.0000000     0.0000000
    3     0.0000000     0.0000000     0.0000000     0.0000000     0.0000000     0.0000000

 Projecting out rotations and translations

 Force Constants (Second Derivatives of the Energy) in [a.u.]
                             C1X1        C1Y1        C1Z1        C2X2        C2Y2    
           C1X1          0.5120864
           C1Y1         -0.0000001   0.6341794
           C1Z1         -0.0000001   0.0325991   0.6325774
           C2X2         -0.1769968   0.0309832  -0.0442049   0.6024545
           C2Y2          0.0316540  -0.1080595   0.0175009   0.0282316   0.6341794
           C2Z2         -0.0469098   0.0186627  -0.1243916  -0.0521742  -0.0162997
           C3X3          0.0021884  -0.0112164  -0.0345853  -0.0980891   0.0006708
           C3Y3         -0.0013907   0.0065152   0.0121486  -0.0006708  -0.1080595
           C3Z3         -0.0054522  -0.0048700  -0.0209273  -0.0013524  -0.0361637
           C4X4          0.0007967  -0.0000000   0.0000000   0.0021883   0.0013906
           C4Y4          0.0000000  -0.0005671   0.0012606   0.0112163   0.0065152
           C4Z4          0.0000000   0.0012606   0.0025766   0.0345853   0.0121488
           C5X5          0.0021883   0.0112164   0.0345853   0.0021316   0.0010917
           C5Y5          0.0013906   0.0065152   0.0121486   0.0010917  -0.0005671
           C5Z5          0.0054523  -0.0048701  -0.0209274  -0.0007707  -0.0006303
           C6X6         -0.1769966  -0.0309833   0.0442049  -0.0324852  -0.0098257
           C6Y6         -0.0316540  -0.1080595   0.0175009   0.0098257   0.0065152
           C6Z6          0.0469099   0.0186628  -0.1243917  -0.0145665  -0.0072787
           H1X7          0.0011538  -0.0002879   0.0002404   0.0018884  -0.0005299
           H1Y7          0.0005468  -0.0005456  -0.0021115  -0.0114563   0.0043873
           H1Z7          0.0025877  -0.0040653  -0.0070542  -0.0310687   0.0150746
           H2X8         -0.0013102   0.0331063   0.0006014  -0.0603630   0.0112852
           H2Y8         -0.0000769  -0.0118361  -0.0000704   0.0133283  -0.3205515
           H2Z8         -0.0010389   0.0202540   0.0000349   0.0020863  -0.0065152
           H3X9         -0.0238033  -0.0127901   0.0162356  -0.2354039  -0.0774483
           H3Y9          0.0114911   0.0043873  -0.0065942  -0.0801390  -0.0941786
           H3Z9         -0.0163198  -0.0079963   0.0104036   0.1025052   0.0447148
           H4X10        -0.0567493   0.0000002  -0.0000000  -0.0004908   0.0340936
           H4Y10         0.0000002  -0.3205514   0.0153900  -0.0000994  -0.0118361
           H4Z10        -0.0000000   0.0130309  -0.0615675   0.0001283   0.0185439
           H5X11        -0.0578600  -0.0000000   0.0000000   0.0018154  -0.0133201
           H5Y11        -0.0000000  -0.0941786  -0.0925365   0.0000348   0.0043873
           H5Z11         0.0000000  -0.0894296  -0.2945854   0.0014446  -0.0070784
           H6X12        -0.0002057   0.0000000   0.0000000   0.0011976  -0.0000959
           H6Y12        -0.0000000   0.0002615   0.0001535   0.0005440  -0.0000431
           H6Z12         0.0000000  -0.0000124  -0.0001976  -0.0007737   0.0010616
           H7X13        -0.0005151  -0.0000000  -0.0000000  -0.0062268  -0.0033767
           H7Y13        -0.0000000   0.0000198  -0.0001186  -0.0021020  -0.0005456
           H7Z13        -0.0000000  -0.0001911   0.0010174   0.0040208   0.0022819
           H8X14         0.0011538   0.0002879  -0.0002404   0.0006342  -0.0001655
           H8Y14        -0.0005468  -0.0005456  -0.0021115  -0.0001027   0.0000198
           H8Z14        -0.0025877  -0.0040653  -0.0070542  -0.0006636   0.0000956
           H9X15        -0.0000084   0.0008715  -0.0000774  -0.0001996  -0.0000108
           H9Y15        -0.0002152  -0.0000431   0.0007524   0.0001330   0.0002615
           H9Z15        -0.0006583  -0.0006139   0.0020244  -0.0000035   0.0000062
           H10X16       -0.0013102  -0.0331063  -0.0006013   0.0018347  -0.0009673
           H10Y16        0.0000769  -0.0118361  -0.0000704   0.0007592  -0.0000431
           H10Z16        0.0010388   0.0202540   0.0000349  -0.0009867  -0.0004478
           H11X17       -0.0238033   0.0127901  -0.0162356  -0.0037776  -0.0036645
           H11Y17       -0.0114912   0.0043873  -0.0065942  -0.0015552  -0.0005456
           H11Z17        0.0163199  -0.0079963   0.0104036   0.0030875   0.0017833
           H12X18       -0.0000084  -0.0008715   0.0000774  -0.0001119   0.0009873
           H12Y18        0.0002152  -0.0000431   0.0007524  -0.0000225  -0.0118361
           H12Z18        0.0006583  -0.0006139   0.0020244  -0.0012931  -0.0387979
                             C2Z2        C3X3        C3Y3        C3Z3        C4X4    
           C2Z2          0.5422092
           C3X3          0.0013525   0.6024550
           C3Y3         -0.0361637  -0.0282318   0.6341792
           C3Z3         -0.2032993   0.0521742  -0.0162993   0.5422090
           C4X4          0.0054523  -0.1769967  -0.0316543   0.0469098   0.5120862
           C4Y4         -0.0048700  -0.0309834  -0.1080596   0.0186629   0.0000002
           C4Z4         -0.0209274   0.0442048   0.0175010  -0.1243915   0.0000001
           C5X5         -0.0007707  -0.0324854   0.0098258  -0.0145665  -0.1769966
           C5Y5         -0.0006303  -0.0098258   0.0065152  -0.0072786   0.0316544
           C5Z5          0.0012417   0.0145665  -0.0072787   0.0137461  -0.0469098
           C6X6          0.0145666   0.0021316  -0.0010917   0.0007707   0.0021882
           C6Y6         -0.0072786  -0.0010917  -0.0005671  -0.0006303  -0.0013906
           C6Z6          0.0137462   0.0007707  -0.0006303   0.0012417  -0.0054523
           H1X7          0.0014868  -0.2354045   0.0774478  -0.1025053  -0.0238033
           H1Y7         -0.0066545   0.0801385  -0.0941781   0.0462679  -0.0114912
           H1Z7         -0.0152881  -0.1025053   0.0447145  -0.1170413   0.0163198
           H2X8          0.0020863  -0.0001119  -0.0009873  -0.0003470  -0.0000085
           H2Y8         -0.0076948   0.0000225  -0.0118362   0.0001018  -0.0002152
           H2Z8         -0.0579538   0.0012933  -0.0387979  -0.0011634  -0.0006583
           H3X9          0.1025052   0.0018884   0.0005299  -0.0014867   0.0011538
           H3Y9          0.0462683   0.0114563   0.0043874  -0.0066545  -0.0005468
           H3Z9         -0.1170414   0.0310686   0.0150748  -0.0152880  -0.0025877
           H4X10        -0.0015120   0.0011976   0.0000959   0.0013546  -0.0002057
           H4Y10        -0.0000314  -0.0005440  -0.0000431  -0.0005625   0.0000000
           H4Z10        -0.0007845   0.0007737   0.0010616   0.0008183  -0.0000000
           H5X11        -0.0311108  -0.0062268   0.0033767  -0.0016735  -0.0005151
           H5Y11         0.0132487   0.0021020  -0.0005456   0.0005822   0.0000000
           H5Z11        -0.0152151  -0.0040208   0.0022819   0.0003264   0.0000000
           H6X12        -0.0013546  -0.0004908  -0.0340936   0.0015118  -0.0567493
           H6Y12        -0.0005626   0.0000994  -0.0118362  -0.0000314  -0.0000002
           H6Z12         0.0008183  -0.0001283   0.0185439  -0.0007844   0.0000000
           H7X13         0.0016735   0.0018154   0.0133199   0.0311109  -0.0578600
           H7Y13         0.0005822  -0.0000348   0.0043873   0.0132488  -0.0000000
           H7Z13         0.0003264  -0.0014446  -0.0070783  -0.0152150  -0.0000001
           H8X14        -0.0006636  -0.0037776   0.0036646  -0.0054348  -0.0238033
           H8Y14         0.0000593   0.0015552  -0.0005456   0.0015293   0.0114912
           H8Z14        -0.0001320  -0.0030876   0.0017834  -0.0021228  -0.0163199
           H9X15        -0.0000035   0.0018347   0.0009674   0.0004058  -0.0013101
           H9Y15        -0.0000768  -0.0007592  -0.0000431  -0.0001899  -0.0000769
           H9Z15        -0.0002037   0.0009868  -0.0004478   0.0001812  -0.0010388
           H10X16       -0.0004058  -0.0001997   0.0000108   0.0000035  -0.0000085
           H10Y16       -0.0001898  -0.0001330   0.0002615  -0.0000768   0.0002152
           H10Z16        0.0001812   0.0000035   0.0000062  -0.0002037   0.0006583
           H11X17        0.0054349   0.0006342   0.0001655   0.0006636   0.0011538
           H11Y17        0.0015293   0.0001027   0.0000198   0.0000593   0.0005468
           H11Z17       -0.0021228   0.0006636   0.0000956  -0.0001320   0.0025877
           H12X18        0.0003470  -0.0603628  -0.0112841  -0.0020863  -0.0013102
           H12Y18        0.0001018  -0.0133273  -0.3205515  -0.0076950   0.0000769
           H12Z18       -0.0011633  -0.0020863  -0.0065154  -0.0579539   0.0010388
                             C4Y4        C4Z4        C5X5        C5Y5        C5Z5    
           C4Y4          0.6341791
           C4Z4          0.0325992   0.6325781
           C5X5          0.0309835  -0.0442048   0.6024552
           C5Y5         -0.1080597   0.0175010   0.0282318   0.6341791
           C5Z5          0.0186630  -0.1243916  -0.0521745  -0.0162995   0.5422091
           C6X6         -0.0112164  -0.0345853  -0.0980891   0.0006708   0.0013524
           C6Y6          0.0065152   0.0121488  -0.0006709  -0.1080597  -0.0361640
           C6Z6         -0.0048700  -0.0209275  -0.0013526  -0.0361639  -0.2032992
           H1X7          0.0127901  -0.0162356  -0.0037777  -0.0036646   0.0054349
           H1Y7          0.0043874  -0.0065942  -0.0015552  -0.0005456   0.0015293
           H1Z7         -0.0079963   0.0104036   0.0030876   0.0017833  -0.0021228
           H2X8          0.0008715  -0.0000774  -0.0001997  -0.0000108  -0.0000035
           H2Y8         -0.0000431   0.0007524   0.0001330   0.0002615  -0.0000768
           H2Z8         -0.0006139   0.0020243  -0.0000035   0.0000062  -0.0002037
           H3X9          0.0002879  -0.0002404   0.0006342  -0.0001655  -0.0006636
           H3Y9         -0.0005456  -0.0021115  -0.0001027   0.0000198   0.0000593
           H3Z9         -0.0040653  -0.0070543  -0.0006636   0.0000956  -0.0001320
           H4X10        -0.0000000  -0.0000000   0.0011976  -0.0000959  -0.0013546
           H4Y10         0.0002615   0.0001535   0.0005440  -0.0000431  -0.0005626
           H4Z10        -0.0000124  -0.0001976  -0.0007737   0.0010617   0.0008183
           H5X11         0.0000000   0.0000000  -0.0062268  -0.0033767   0.0016735
           H5Y11         0.0000198  -0.0001186  -0.0021020  -0.0005456   0.0005822
           H5Z11        -0.0001911   0.0010174   0.0040209   0.0022819   0.0003264
           H6X12        -0.0000002   0.0000000  -0.0004907   0.0340936  -0.0015118
           H6Y12        -0.3205516   0.0153884  -0.0000994  -0.0118363  -0.0000314
           H6Z12         0.0130292  -0.0615673   0.0001283   0.0185439  -0.0007844
           H7X13        -0.0000000  -0.0000001   0.0018154  -0.0133200  -0.0311108
           H7Y13        -0.0941775  -0.0925353   0.0000348   0.0043873   0.0132488
           H7Z13        -0.0894284  -0.2945865   0.0014446  -0.0070783  -0.0152150
           H8X14        -0.0127900   0.0162356  -0.2354049  -0.0774473   0.1025056
           H8Y14         0.0043873  -0.0065943  -0.0801379  -0.0941776   0.0462676
           H8Z14        -0.0079962   0.0104036   0.1025056   0.0447142  -0.1170416
           H9X15         0.0331063   0.0006014  -0.0603628   0.0112835   0.0020863
           H9Y15        -0.0118363  -0.0000704   0.0133267  -0.3205516  -0.0076944
           H9Z15         0.0202540   0.0000349   0.0020863  -0.0065148  -0.0579538
           H10X16       -0.0008715   0.0000774  -0.0001119   0.0009873   0.0003470
           H10Y16       -0.0000431   0.0007524  -0.0000225  -0.0118363   0.0001018
           H10Z16       -0.0006139   0.0020244  -0.0012932  -0.0387979  -0.0011633
           H11X17       -0.0002879   0.0002404   0.0018884  -0.0005299   0.0014868
           H11Y17       -0.0005456  -0.0021115  -0.0114564   0.0043874  -0.0066546
           H11Z17       -0.0040653  -0.0070542  -0.0310686   0.0150747  -0.0152880
           H12X18       -0.0331063  -0.0006014   0.0018347  -0.0009674  -0.0004058
           H12Y18       -0.0118363  -0.0000704   0.0007592  -0.0000431  -0.0001898
           H12Z18        0.0202539   0.0000350  -0.0009868  -0.0004478   0.0001812
                             C6X6        C6Y6        C6Z6        H1X7        H1Y7    
           C6X6          0.6024547
           C6Y6         -0.0282316   0.6341792
           C6Z6          0.0521744  -0.0162998   0.5422093
           H1X7          0.0006342   0.0001655   0.0006636   0.2555582
           H1Y7          0.0001027   0.0000198   0.0000593  -0.0860960   0.0958055
           H1Z7          0.0006636   0.0000956  -0.0001320   0.1114490  -0.0497075
           H2X8          0.0018347   0.0009674   0.0004058   0.0001136  -0.0004689
           H2Y8         -0.0007592  -0.0000431  -0.0001898  -0.0006723   0.0007576
           H2Z8          0.0009867  -0.0004478   0.0001812  -0.0003941   0.0007421
           H3X9         -0.0037776   0.0036645  -0.0054349   0.0007067   0.0002122
           H3Y9          0.0015552  -0.0005456   0.0015293  -0.0002122   0.0000807
           H3Z9         -0.0030875   0.0017833  -0.0021228  -0.0006961   0.0008425
           H4X10        -0.0004908  -0.0340936   0.0015120  -0.0000086  -0.0003063
           H4Y10         0.0000994  -0.0118362  -0.0000314   0.0000571   0.0004764
           H4Z10        -0.0001283   0.0185439  -0.0007845   0.0000497  -0.0002763
           H5X11         0.0018154   0.0133201   0.0311108   0.0000013  -0.0003740
           H5Y11        -0.0000348   0.0043873   0.0132487   0.0001272   0.0004985
           H5Z11        -0.0014446  -0.0070784  -0.0152151   0.0000561  -0.0003628
           H6X12         0.0011976   0.0000959   0.0013546   0.0011770   0.0004082
           H6Y12        -0.0005440  -0.0000431  -0.0005626  -0.0008127   0.0007575
           H6Z12         0.0007737   0.0010617   0.0008183  -0.0004940  -0.0007771
           H7X13        -0.0062268   0.0033767  -0.0016735   0.0008946   0.0008357
           H7Y13         0.0021020  -0.0005456   0.0005822   0.0006235   0.0000807
           H7Z13        -0.0040208   0.0022819   0.0003264   0.0005876  -0.0002375
           H8X14         0.0018884   0.0005300  -0.0014868  -0.0019298  -0.0005012
           H8Y14         0.0114564   0.0043873  -0.0066546   0.0005012   0.0004985
           H8Z14         0.0310687   0.0150746  -0.0152881  -0.0011710  -0.0001425
           H9X15        -0.0001119  -0.0009873  -0.0003470   0.0003691  -0.0003925
           H9Y15         0.0000225  -0.0118362   0.0001018   0.0001055   0.0004764
           H9Z15         0.0012931  -0.0387979  -0.0011633   0.0001582  -0.0001271
           H10X16       -0.0603629  -0.0112846  -0.0020863  -0.0000234   0.0000182
           H10Y16       -0.0133277  -0.3205515  -0.0076943  -0.0001229  -0.0000315
           H10Z16       -0.0020863  -0.0065147  -0.0579538  -0.0000954   0.0000105
           H11X17       -0.2354044   0.0774478  -0.1025054   0.0000361   0.0000351
           H11Y17        0.0801384  -0.0941781   0.0462680   0.0000351  -0.0000568
           H11Z17       -0.1025054   0.0447145  -0.1170415  -0.0001317   0.0000203
           H12X18       -0.0001996   0.0000108   0.0000035   0.0024141   0.0303441
           H12Y18       -0.0001330   0.0002615  -0.0000768   0.0005453  -0.0128685
           H12Z18        0.0000035   0.0000062  -0.0002037   0.0015970   0.0175192
                             H1Z7        H2X8        H2Y8        H2Z8        H3X9    
           H1Z7          0.1268677
           H2X8          0.0001199   0.0605733
           H2Y8         -0.0005503  -0.0148434   0.3507689
           H2Z8          0.0016898   0.0020647   0.0085696   0.0629573
           H3X9          0.0006961   0.0024142  -0.0005452  -0.0015971   0.2555576
           H3Y9          0.0008425  -0.0303440  -0.0128687   0.0175192   0.0860965
           H3Z9          0.0009573  -0.0015971   0.0003148   0.0005700  -0.1114488
           H4X10         0.0003763  -0.0054260   0.0022270  -0.0041278   0.0011770
           H4Y10         0.0000889   0.0024138   0.0009413   0.0011780   0.0008127
           H4Z10         0.0002491  -0.0033079   0.0015014  -0.0011329   0.0004940
           H5X11        -0.0022859   0.0014145   0.0001404   0.0008709   0.0008946
           H5Y11         0.0005053  -0.0008771   0.0007576   0.0000350  -0.0006235
           H5Z11        -0.0012861   0.0003569   0.0008573   0.0003889  -0.0005876
           H6X12        -0.0010080   0.0001366   0.0006975   0.0004503  -0.0000086
           H6Y12        -0.0003070   0.0000397   0.0008851   0.0007825  -0.0000571
           H6Z12         0.0006264   0.0002501  -0.0003568  -0.0002678  -0.0000497
           H7X13        -0.0008046   0.0000003   0.0000484  -0.0003814   0.0000013
           H7Y13        -0.0006050  -0.0000861   0.0004764   0.0004035  -0.0001272
           H7Z13         0.0007693  -0.0000548  -0.0000939   0.0002403  -0.0000561
           H8X14         0.0011710  -0.0000234   0.0001229   0.0000954   0.0000361
           H8Y14        -0.0001425  -0.0000182  -0.0000315   0.0000105  -0.0000351
           H8Z14         0.0006450   0.0000954  -0.0000709   0.0000867   0.0001317
           H9X15        -0.0001684   0.0000427  -0.0001845  -0.0001145  -0.0000234
           H9Y15         0.0000050  -0.0001845   0.0000590   0.0001065   0.0001229
           H9Z15        -0.0001286  -0.0001145   0.0001065  -0.0000895   0.0000954
           H10X16       -0.0000954  -0.0004700   0.0006578  -0.0001001   0.0003691
           H10Y16       -0.0000709  -0.0006578   0.0008851  -0.0004256  -0.0001055
           H10Z16        0.0000867   0.0001001  -0.0004256   0.0003388  -0.0001582
           H11X17       -0.0001317   0.0003691   0.0001055   0.0001582  -0.0019298
           H11Y17        0.0000203  -0.0003925   0.0004764  -0.0001271  -0.0005012
           H11Z17        0.0001881  -0.0001684   0.0000050  -0.0001286   0.0011710
           H12X18        0.0015971   0.0010136  -0.0001867   0.0004100   0.0001136
           H12Y18        0.0003148   0.0001867   0.0009413  -0.0026794   0.0006722
           H12Z18        0.0005700  -0.0004100  -0.0026794  -0.0075725   0.0003941
                             H3Y9        H3Z9        H4X10       H4Y10       H4Z10   
           H3Y9          0.0958061
           H3Z9         -0.0497079   0.1268678
           H4X10        -0.0004082   0.0010080   0.0641494
           H4Y10         0.0007576  -0.0003070  -0.0000002   0.3507689
           H4Z10        -0.0007771   0.0006264   0.0000000  -0.0171395   0.0593813
           H5X11        -0.0008357   0.0008046  -0.0003521   0.0000000   0.0000000
           H5Y11         0.0000807  -0.0006050  -0.0000000  -0.0128687  -0.0350383
           H5Z11        -0.0002375   0.0007693   0.0000000  -0.0006295   0.0033363
           H6X12         0.0003063  -0.0003763  -0.0001556  -0.0000000   0.0000000
           H6Y12         0.0004764   0.0000889   0.0000000   0.0000590  -0.0002131
           H6Z12        -0.0002763   0.0002491  -0.0000000  -0.0002131   0.0001089
           H7X13         0.0003740   0.0022859   0.0001418  -0.0000000   0.0000000
           H7Y13         0.0004985   0.0005053   0.0000000  -0.0000315  -0.0000210
           H7Z13        -0.0003628  -0.0012861  -0.0000000   0.0001419  -0.0000785
           H8X14        -0.0000351   0.0001317  -0.0000086  -0.0000571  -0.0000497
           H8Y14        -0.0000568   0.0000203   0.0003063   0.0004764  -0.0002763
           H8Z14         0.0000203   0.0001881  -0.0003763   0.0000889   0.0002491
           H9X15        -0.0000182   0.0000954   0.0001366   0.0000397   0.0002501
           H9Y15        -0.0000315  -0.0000709   0.0006975   0.0008851  -0.0003568
           H9Z15         0.0000105   0.0000867   0.0004503   0.0007825  -0.0002678
           H10X16        0.0003925   0.0001684  -0.0054260  -0.0024138   0.0033079
           H10Y16        0.0004764   0.0000050  -0.0022271   0.0009413   0.0015014
           H10Z16       -0.0001271  -0.0001286   0.0041279   0.0011780  -0.0011329
           H11X17        0.0005012  -0.0011710   0.0011770  -0.0008127  -0.0004940
           H11Y17        0.0004985  -0.0001425   0.0004082   0.0007576  -0.0007771
           H11Z17       -0.0001425   0.0006450  -0.0010080  -0.0003070   0.0006264
           H12X18        0.0004689  -0.0001199   0.0001366  -0.0000397  -0.0002501
           H12Y18        0.0007576  -0.0005503  -0.0006975   0.0008851  -0.0003568
           H12Z18        0.0007421   0.0016898  -0.0004503   0.0007825  -0.0002678
                             H5X11       H5Y11       H5Z11       H6X12       H6Y12   
           H5X11         0.0625227
           H5Y11        -0.0000000   0.0958061
           H5Z11        -0.0000000   0.0994157   0.3199027
           H6X12         0.0001418  -0.0000000   0.0000000   0.0641493
           H6Y12         0.0000000  -0.0000315   0.0001419   0.0000003   0.3507691
           H6Z12        -0.0000000  -0.0000210  -0.0000785  -0.0000000  -0.0171377
           H7X13         0.0002641   0.0000000  -0.0000000  -0.0003521  -0.0000000
           H7Y13        -0.0000000  -0.0000568  -0.0000406  -0.0000000  -0.0128684
           H7Z13         0.0000000  -0.0000406  -0.0000399   0.0000000  -0.0006296
           H8X14         0.0000013  -0.0001272  -0.0000561   0.0011770   0.0008127
           H8Y14         0.0003740   0.0004985  -0.0003628  -0.0004082   0.0007575
           H8Z14         0.0022859   0.0005053  -0.0012861   0.0010080  -0.0003070
           H9X15         0.0000003  -0.0000861  -0.0000548  -0.0054260   0.0024138
           H9Y15         0.0000484   0.0004764  -0.0000939   0.0022271   0.0009413
           H9Z15        -0.0003814   0.0004035   0.0002403  -0.0041278   0.0011780
           H10X16        0.0014145   0.0008771  -0.0003569   0.0001366  -0.0000397
           H10Y16       -0.0001404   0.0007576   0.0008573  -0.0006975   0.0008851
           H10Z16       -0.0008709   0.0000350   0.0003889  -0.0004503   0.0007825
           H11X17        0.0008946   0.0006235   0.0005876  -0.0000086   0.0000571
           H11Y17        0.0008357   0.0000807  -0.0002375  -0.0003063   0.0004764
           H11Z17       -0.0008046  -0.0006050   0.0007693   0.0003763   0.0000889
           H12X18        0.0000003   0.0000861   0.0000548  -0.0054260  -0.0024138
           H12Y18       -0.0000484   0.0004764  -0.0000939  -0.0022271   0.0009413
           H12Z18        0.0003814   0.0004035   0.0002403   0.0041278   0.0011780
                             H6Z12       H7X13       H7Y13       H7Z13       H8X14   
           H6Z12         0.0593811
           H7X13        -0.0000000   0.0625227
           H7Y13        -0.0350384   0.0000000   0.0958049
           H7Z13         0.0033361   0.0000001   0.0994144   0.3199039
           H8X14         0.0004940   0.0008946  -0.0006235  -0.0005876   0.2555586
           H8Y14        -0.0007771  -0.0008357   0.0000807  -0.0002375   0.0860954
           H8Z14         0.0006264   0.0008046  -0.0006050   0.0007694  -0.1114493
           H9X15        -0.0033079   0.0014144  -0.0008771   0.0003569   0.0024140
           H9Y15         0.0015014   0.0001404   0.0007575   0.0008573  -0.0005453
           H9Z15        -0.0011329   0.0008709   0.0000350   0.0003889  -0.0015970
           H10X16       -0.0002501   0.0000003   0.0000861   0.0000548   0.0001136
           H10Y16       -0.0003568  -0.0000484   0.0004764  -0.0000939   0.0006723
           H10Z16       -0.0002678   0.0003814   0.0004035   0.0002403   0.0003941
           H11X17        0.0000497   0.0000013   0.0001272   0.0000561   0.0007067
           H11Y17       -0.0002763  -0.0003740   0.0004985  -0.0003628   0.0002122
           H11Z17        0.0002491  -0.0022859   0.0005053  -0.0012861   0.0006961
           H12X18        0.0033079   0.0014145   0.0008771  -0.0003569   0.0003691
           H12Y18        0.0015014  -0.0001404   0.0007575   0.0008573  -0.0001055
           H12Z18       -0.0011329  -0.0008709   0.0000350   0.0003889  -0.0001582
                             H8Y14       H8Z14       H9X15       H9Y15       H9Z15   
           H8Y14         0.0958049
           H8Z14        -0.0497072   0.1268680
           H9X15        -0.0303441  -0.0015970   0.0605732
           H9Y15        -0.0128684   0.0003148  -0.0148416   0.3507691
           H9Z15         0.0175192   0.0005700   0.0020647   0.0085691   0.0629572
           H10X16        0.0004689  -0.0001199   0.0010136  -0.0001867   0.0004100
           H10Y16        0.0007575  -0.0005503   0.0001867   0.0009413  -0.0026794
           H10Z16        0.0007421   0.0016897  -0.0004100  -0.0026794  -0.0075725
           H11X17       -0.0002122  -0.0006961   0.0001136  -0.0006722  -0.0003941
           H11Y17        0.0000807   0.0008425  -0.0004689   0.0007575   0.0007421
           H11Z17        0.0008425   0.0009573   0.0001199  -0.0005503   0.0016897
           H12X18        0.0003925   0.0001684  -0.0004700   0.0006578  -0.0001001
           H12Y18        0.0004764   0.0000050  -0.0006578   0.0008851  -0.0004256
           H12Z18       -0.0001271  -0.0001286   0.0001001  -0.0004256   0.0003388
                             H10X16      H10Y16      H10Z16      H11X17      H11Y17  
           H10X16        0.0605732
           H10Y16        0.0148427   0.3507690
           H10Z16       -0.0020647   0.0085689   0.0629573
           H11X17        0.0024141   0.0005452   0.0015971   0.2555581
           H11Y17        0.0303441  -0.0128685   0.0175192  -0.0860959   0.0958055
           H11Z17        0.0015970   0.0003148   0.0005700   0.1114491  -0.0497076
           H12X18        0.0000427   0.0001845   0.0001145  -0.0000234   0.0000182
           H12Y18        0.0001845   0.0000590   0.0001065  -0.0001229  -0.0000315
           H12Z18        0.0001145   0.0001065  -0.0000895  -0.0000954   0.0000105
                             H11Z17      H12X18      H12Y18      H12Z18  
           H11Z17        0.1268679
           H12X18       -0.0000954   0.0605732
           H12Y18       -0.0000709   0.0148423   0.3507690
           H12Z18        0.0000867  -0.0020647   0.0085697   0.0629573


 Atomic Masses
   1- 10   12.000000   12.000000   12.000000   12.000000   12.000000   12.000000    1.007825    1.007825    1.007825    1.007825
  11- 18    1.007825    1.007825    1.007825    1.007825    1.007825    1.007825    1.007825    1.007825

 Mass weighted Second Derivative Matrix
                             C1X1        C1Y1        C1Z1        C2X2        C2Y2    
           C1X1          0.0426739
           C1Y1         -0.0000000   0.0528483
           C1Z1         -0.0000000   0.0027166   0.0527148
           C2X2         -0.0147497   0.0025819  -0.0036837   0.0502045
           C2Y2          0.0026378  -0.0090050   0.0014584   0.0023526   0.0528483
           C2Z2         -0.0039092   0.0015552  -0.0103660  -0.0043478  -0.0013583
           C3X3          0.0001824  -0.0009347  -0.0028821  -0.0081741   0.0000559
           C3Y3         -0.0001159   0.0005429   0.0010124  -0.0000559  -0.0090050
           C3Z3         -0.0004544  -0.0004058  -0.0017439  -0.0001127  -0.0030136
           C4X4          0.0000664  -0.0000000   0.0000000   0.0001824   0.0001159
           C4Y4          0.0000000  -0.0000473   0.0001050   0.0009347   0.0005429
           C4Z4          0.0000000   0.0001051   0.0002147   0.0028821   0.0010124
           C5X5          0.0001824   0.0009347   0.0028821   0.0001776   0.0000910
           C5Y5          0.0001159   0.0005429   0.0010124   0.0000910  -0.0000473
           C5Z5          0.0004544  -0.0004058  -0.0017440  -0.0000642  -0.0000525
           C6X6         -0.0147497  -0.0025819   0.0036837  -0.0027071  -0.0008188
           C6Y6         -0.0026378  -0.0090050   0.0014584   0.0008188   0.0005429
           C6Z6          0.0039092   0.0015552  -0.0103660  -0.0012139  -0.0006066
           H1X7          0.0003318  -0.0000828   0.0000691   0.0005430  -0.0001524
           H1Y7          0.0001572  -0.0001569  -0.0006072  -0.0032943   0.0012616
           H1Z7          0.0007441  -0.0011690  -0.0020285  -0.0089339   0.0043347
           H2X8         -0.0003768   0.0095198   0.0001729  -0.0173575   0.0032451
           H2Y8         -0.0000221  -0.0034035  -0.0000202   0.0038326  -0.0921753
           H2Z8         -0.0002987   0.0058241   0.0000100   0.0005999  -0.0018735
           H3X9         -0.0068447  -0.0036778   0.0046686  -0.0676909  -0.0222704
           H3Y9          0.0033043   0.0012616  -0.0018962  -0.0230442  -0.0270813
           H3Z9         -0.0046928  -0.0022994   0.0029916   0.0294756   0.0128579
           H4X10        -0.0163184   0.0000001  -0.0000000  -0.0001411   0.0098037
           H4Y10         0.0000001  -0.0921753   0.0044254  -0.0000286  -0.0034035
           H4Z10        -0.0000000   0.0037471  -0.0177039   0.0000369   0.0053323
           H5X11        -0.0166378  -0.0000000   0.0000000   0.0005220  -0.0038302
           H5Y11        -0.0000000  -0.0270813  -0.0266091   0.0000100   0.0012616
           H5Z11         0.0000000  -0.0257157  -0.0847087   0.0004154  -0.0020354
           H6X12        -0.0000591   0.0000000   0.0000000   0.0003444  -0.0000276
           H6Y12        -0.0000000   0.0000752   0.0000442   0.0001564  -0.0000124
           H6Z12         0.0000000  -0.0000036  -0.0000568  -0.0002225   0.0003053
           H7X13        -0.0001481  -0.0000000  -0.0000000  -0.0017905  -0.0009710
           H7Y13        -0.0000000   0.0000057  -0.0000341  -0.0006044  -0.0001569
           H7Z13        -0.0000000  -0.0000550   0.0002925   0.0011562   0.0006562
           H8X14         0.0003318   0.0000828  -0.0000691   0.0001824  -0.0000476
           H8Y14        -0.0001572  -0.0001569  -0.0006072  -0.0000295   0.0000057
           H8Z14        -0.0007441  -0.0011690  -0.0020285  -0.0001908   0.0000275
           H9X15        -0.0000024   0.0002506  -0.0000223  -0.0000574  -0.0000031
           H9Y15        -0.0000619  -0.0000124   0.0002164   0.0000382   0.0000752
           H9Z15        -0.0001893  -0.0001765   0.0005821  -0.0000010   0.0000018
           H10X16       -0.0003767  -0.0095198  -0.0001729   0.0005276  -0.0002782
           H10Y16        0.0000221  -0.0034035  -0.0000202   0.0002183  -0.0000124
           H10Z16        0.0002987   0.0058241   0.0000100  -0.0002837  -0.0001288
           H11X17       -0.0068447   0.0036778  -0.0046686  -0.0010863  -0.0010537
           H11Y17       -0.0033043   0.0012616  -0.0018962  -0.0004472  -0.0001569
           H11Z17        0.0046928  -0.0022993   0.0029916   0.0008878   0.0005128
           H12X18       -0.0000024  -0.0002506   0.0000223  -0.0000322   0.0002839
           H12Y18        0.0000619  -0.0000124   0.0002164  -0.0000065  -0.0034035
           H12Z18        0.0001893  -0.0001765   0.0005821  -0.0003718  -0.0111564
                             C2Z2        C3X3        C3Y3        C3Z3        C4X4    
           C2Z2          0.0451841
           C3X3          0.0001127   0.0502046
           C3Y3         -0.0030136  -0.0023527   0.0528483
           C3Z3         -0.0169416   0.0043479  -0.0013583   0.0451841
           C4X4          0.0004544  -0.0147497  -0.0026379   0.0039091   0.0426739
           C4Y4         -0.0004058  -0.0025820  -0.0090050   0.0015552   0.0000000
           C4Z4         -0.0017440   0.0036837   0.0014584  -0.0103660   0.0000000
           C5X5         -0.0000642  -0.0027071   0.0008188  -0.0012139  -0.0147497
           C5Y5         -0.0000525  -0.0008188   0.0005429  -0.0006066   0.0026379
           C5Z5          0.0001035   0.0012139  -0.0006066   0.0011455  -0.0039092
           C6X6          0.0012139   0.0001776  -0.0000910   0.0000642   0.0001824
           C6Y6         -0.0006066  -0.0000910  -0.0000473  -0.0000525  -0.0001159
           C6Z6          0.0011455   0.0000642  -0.0000525   0.0001035  -0.0004544
           H1X7          0.0004275  -0.0676911   0.0222703  -0.0294756  -0.0068447
           H1Y7         -0.0019135   0.0230440  -0.0270811   0.0133044  -0.0033043
           H1Z7         -0.0043961  -0.0294756   0.0128578  -0.0336555   0.0046928
           H2X8          0.0005999  -0.0000322  -0.0002839  -0.0000998  -0.0000024
           H2Y8         -0.0022127   0.0000065  -0.0034035   0.0000293  -0.0000619
           H2Z8         -0.0166648   0.0003719  -0.0111564  -0.0003345  -0.0001893
           H3X9          0.0294756   0.0005430   0.0001524  -0.0004275   0.0003318
           H3Y9          0.0133046   0.0032943   0.0012616  -0.0019135  -0.0001572
           H3Z9         -0.0336555   0.0089339   0.0043348  -0.0043961  -0.0007441
           H4X10        -0.0004348   0.0003444   0.0000276   0.0003895  -0.0000591
           H4Y10        -0.0000090  -0.0001564  -0.0000124  -0.0001618   0.0000000
           H4Z10        -0.0002256   0.0002225   0.0003053   0.0002353  -0.0000000
           H5X11        -0.0089460  -0.0017905   0.0009710  -0.0004812  -0.0001481
           H5Y11         0.0038097   0.0006044  -0.0001569   0.0001674   0.0000000
           H5Z11        -0.0043751  -0.0011562   0.0006562   0.0000939   0.0000000
           H6X12        -0.0003895  -0.0001411  -0.0098037   0.0004347  -0.0163184
           H6Y12        -0.0001618   0.0000286  -0.0034035  -0.0000090  -0.0000001
           H6Z12         0.0002353  -0.0000369   0.0053323  -0.0002256   0.0000000
           H7X13         0.0004812   0.0005220   0.0038302   0.0089460  -0.0166378
           H7Y13         0.0001674  -0.0000100   0.0012616   0.0038097  -0.0000000
           H7Z13         0.0000939  -0.0004154  -0.0020354  -0.0043751  -0.0000000
           H8X14        -0.0001908  -0.0010863   0.0010538  -0.0015628  -0.0068447
           H8Y14         0.0000170   0.0004472  -0.0001569   0.0004398   0.0033043
           H8Z14        -0.0000380  -0.0008878   0.0005128  -0.0006104  -0.0046928
           H9X15        -0.0000010   0.0005276   0.0002782   0.0001167  -0.0003767
           H9Y15        -0.0000221  -0.0002183  -0.0000124  -0.0000546  -0.0000221
           H9Z15        -0.0000586   0.0002837  -0.0001288   0.0000521  -0.0002987
           H10X16       -0.0001167  -0.0000574   0.0000031   0.0000010  -0.0000024
           H10Y16       -0.0000546  -0.0000382   0.0000752  -0.0000221   0.0000619
           H10Z16        0.0000521   0.0000010   0.0000018  -0.0000586   0.0001893
           H11X17        0.0015628   0.0001824   0.0000476   0.0001908   0.0003318
           H11Y17        0.0004398   0.0000295   0.0000057   0.0000170   0.0001572
           H11Z17       -0.0006104   0.0001908   0.0000275  -0.0000380   0.0007441
           H12X18        0.0000998  -0.0173575  -0.0032448  -0.0005999  -0.0003767
           H12Y18        0.0000293  -0.0038323  -0.0921753  -0.0022127   0.0000221
           H12Z18       -0.0003345  -0.0005999  -0.0018735  -0.0166648   0.0002987
                             C4Y4        C4Z4        C5X5        C5Y5        C5Z5    
           C4Y4          0.0528483
           C4Z4          0.0027166   0.0527148
           C5X5          0.0025820  -0.0036837   0.0502046
           C5Y5         -0.0090050   0.0014584   0.0023526   0.0528483
           C5Z5          0.0015553  -0.0103660  -0.0043479  -0.0013583   0.0451841
           C6X6         -0.0009347  -0.0028821  -0.0081741   0.0000559   0.0001127
           C6Y6          0.0005429   0.0010124  -0.0000559  -0.0090050  -0.0030137
           C6Z6         -0.0004058  -0.0017440  -0.0001127  -0.0030137  -0.0169416
           H1X7          0.0036778  -0.0046686  -0.0010863  -0.0010538   0.0015628
           H1Y7          0.0012616  -0.0018962  -0.0004472  -0.0001569   0.0004398
           H1Z7         -0.0022993   0.0029916   0.0008878   0.0005128  -0.0006104
           H2X8          0.0002506  -0.0000223  -0.0000574  -0.0000031  -0.0000010
           H2Y8         -0.0000124   0.0002164   0.0000382   0.0000752  -0.0000221
           H2Z8         -0.0001765   0.0005821  -0.0000010   0.0000018  -0.0000586
           H3X9          0.0000828  -0.0000691   0.0001824  -0.0000476  -0.0001908
           H3Y9         -0.0001569  -0.0006072  -0.0000295   0.0000057   0.0000170
           H3Z9         -0.0011690  -0.0020285  -0.0001908   0.0000275  -0.0000380
           H4X10        -0.0000000  -0.0000000   0.0003444  -0.0000276  -0.0003895
           H4Y10         0.0000752   0.0000441   0.0001564  -0.0000124  -0.0001618
           H4Z10        -0.0000036  -0.0000568  -0.0002225   0.0003053   0.0002353
           H5X11         0.0000000   0.0000000  -0.0017905  -0.0009710   0.0004812
           H5Y11         0.0000057  -0.0000341  -0.0006044  -0.0001569   0.0001674
           H5Z11        -0.0000550   0.0002925   0.0011562   0.0006562   0.0000939
           H6X12        -0.0000001   0.0000000  -0.0001411   0.0098037  -0.0004347
           H6Y12        -0.0921753   0.0044250  -0.0000286  -0.0034036  -0.0000090
           H6Z12         0.0037466  -0.0177038   0.0000369   0.0053323  -0.0002256
           H7X13        -0.0000000  -0.0000000   0.0005220  -0.0038302  -0.0089460
           H7Y13        -0.0270810  -0.0266087   0.0000100   0.0012616   0.0038097
           H7Z13        -0.0257153  -0.0847090   0.0004154  -0.0020354  -0.0043751
           H8X14        -0.0036778   0.0046686  -0.0676912  -0.0222701   0.0294757
           H8Y14         0.0012616  -0.0018962  -0.0230438  -0.0270810   0.0133044
           H8Z14        -0.0022993   0.0029916   0.0294757   0.0128577  -0.0336556
           H9X15         0.0095198   0.0001729  -0.0173575   0.0032446   0.0005999
           H9Y15        -0.0034036  -0.0000202   0.0038321  -0.0921753  -0.0022125
           H9Z15         0.0058241   0.0000100   0.0005999  -0.0018733  -0.0166648
           H10X16       -0.0002506   0.0000223  -0.0000322   0.0002839   0.0000998
           H10Y16       -0.0000124   0.0002164  -0.0000065  -0.0034035   0.0000293
           H10Z16       -0.0001765   0.0005821  -0.0003719  -0.0111564  -0.0003345
           H11X17       -0.0000828   0.0000691   0.0005430  -0.0001524   0.0004275
           H11Y17       -0.0001569  -0.0006072  -0.0032943   0.0012616  -0.0019135
           H11Z17       -0.0011690  -0.0020285  -0.0089339   0.0043348  -0.0043961
           H12X18       -0.0095198  -0.0001729   0.0005276  -0.0002782  -0.0001167
           H12Y18       -0.0034035  -0.0000202   0.0002183  -0.0000124  -0.0000546
           H12Z18        0.0058241   0.0000101  -0.0002837  -0.0001288   0.0000521
                             C6X6        C6Y6        C6Z6        H1X7        H1Y7    
           C6X6          0.0502046
           C6Y6         -0.0023526   0.0528483
           C6Z6          0.0043479  -0.0013583   0.0451841
           H1X7          0.0001824   0.0000476   0.0001908   0.2535740
           H1Y7          0.0000295   0.0000057   0.0000170  -0.0854275   0.0950616
           H1Z7          0.0001908   0.0000275  -0.0000380   0.1105837  -0.0493215
           H2X8          0.0005276   0.0002782   0.0001167   0.0001128  -0.0004652
           H2Y8         -0.0002183  -0.0000124  -0.0000546  -0.0006670   0.0007517
           H2Z8          0.0002837  -0.0001288   0.0000521  -0.0003910   0.0007363
           H3X9         -0.0010863   0.0010537  -0.0015628   0.0007012   0.0002105
           H3Y9          0.0004472  -0.0001569   0.0004398  -0.0002105   0.0000801
           H3Z9         -0.0008878   0.0005128  -0.0006104  -0.0006907   0.0008359
           H4X10        -0.0001411  -0.0098037   0.0004348  -0.0000085  -0.0003040
           H4Y10         0.0000286  -0.0034035  -0.0000090   0.0000567   0.0004727
           H4Z10        -0.0000369   0.0053324  -0.0002256   0.0000493  -0.0002742
           H5X11         0.0005220   0.0038302   0.0089460   0.0000013  -0.0003711
           H5Y11        -0.0000100   0.0012616   0.0038097   0.0001262   0.0004946
           H5Z11        -0.0004154  -0.0020354  -0.0043751   0.0000556  -0.0003600
           H6X12         0.0003444   0.0000276   0.0003895   0.0011678   0.0004051
           H6Y12        -0.0001564  -0.0000124  -0.0001618  -0.0008064   0.0007517
           H6Z12         0.0002225   0.0003053   0.0002353  -0.0004902  -0.0007711
           H7X13        -0.0017905   0.0009710  -0.0004812   0.0008877   0.0008292
           H7Y13         0.0006044  -0.0001569   0.0001674   0.0006187   0.0000801
           H7Z13        -0.0011562   0.0006562   0.0000939   0.0005830  -0.0002356
           H8X14         0.0005430   0.0001524  -0.0004275  -0.0019148  -0.0004973
           H8Y14         0.0032943   0.0012616  -0.0019135   0.0004973   0.0004946
           H8Z14         0.0089339   0.0043347  -0.0043961  -0.0011619  -0.0001414
           H9X15        -0.0000322  -0.0002839  -0.0000998   0.0003663  -0.0003894
           H9Y15         0.0000065  -0.0034035   0.0000293   0.0001047   0.0004727
           H9Z15         0.0003718  -0.0111564  -0.0003345   0.0001570  -0.0001262
           H10X16       -0.0173575  -0.0032449  -0.0005999  -0.0000233   0.0000181
           H10Y16       -0.0038324  -0.0921753  -0.0022125  -0.0001219  -0.0000312
           H10Z16       -0.0005999  -0.0018733  -0.0166647  -0.0000946   0.0000104
           H11X17       -0.0676911   0.0222703  -0.0294757   0.0000358   0.0000349
           H11Y17        0.0230440  -0.0270811   0.0133045   0.0000349  -0.0000564
           H11Z17       -0.0294757   0.0128578  -0.0336556  -0.0001307   0.0000201
           H12X18       -0.0000574   0.0000031   0.0000010   0.0023953   0.0301085
           H12Y18       -0.0000382   0.0000752  -0.0000221   0.0005410  -0.0127686
           H12Z18        0.0000010   0.0000018  -0.0000586   0.0015846   0.0173831
                             H1Z7        H2X8        H2Y8        H2Z8        H3X9    
           H1Z7          0.1258827
           H2X8          0.0001190   0.0601030
           H2Y8         -0.0005460  -0.0147282   0.3480454
           H2Z8          0.0016766   0.0020486   0.0085030   0.0624685
           H3X9          0.0006907   0.0023955  -0.0005410  -0.0015847   0.2535734
           H3Y9          0.0008359  -0.0301084  -0.0127687   0.0173831   0.0854280
           H3Z9          0.0009498  -0.0015847   0.0003123   0.0005656  -0.1105835
           H4X10         0.0003733  -0.0053838   0.0022098  -0.0040958   0.0011679
           H4Y10         0.0000882   0.0023950   0.0009340   0.0011688   0.0008064
           H4Z10         0.0002472  -0.0032822   0.0014897  -0.0011241   0.0004902
           H5X11        -0.0022682   0.0014035   0.0001394   0.0008641   0.0008877
           H5Y11         0.0005013  -0.0008703   0.0007517   0.0000348  -0.0006187
           H5Z11        -0.0012761   0.0003542   0.0008507   0.0003859  -0.0005830
           H6X12        -0.0010002   0.0001355   0.0006921   0.0004468  -0.0000085
           H6Y12        -0.0003047   0.0000394   0.0008782   0.0007764  -0.0000567
           H6Z12         0.0006215   0.0002481  -0.0003540  -0.0002657  -0.0000493
           H7X13        -0.0007983   0.0000003   0.0000480  -0.0003784   0.0000013
           H7Y13        -0.0006003  -0.0000855   0.0004727   0.0004003  -0.0001262
           H7Z13         0.0007634  -0.0000543  -0.0000932   0.0002384  -0.0000556
           H8X14         0.0011619  -0.0000233   0.0001219   0.0000946   0.0000358
           H8Y14        -0.0001414  -0.0000181  -0.0000312   0.0000104  -0.0000349
           H8Z14         0.0006400   0.0000946  -0.0000704   0.0000860   0.0001307
           H9X15        -0.0001671   0.0000424  -0.0001831  -0.0001136  -0.0000233
           H9Y15         0.0000050  -0.0001831   0.0000586   0.0001057   0.0001219
           H9Z15        -0.0001276  -0.0001136   0.0001057  -0.0000888   0.0000946
           H10X16       -0.0000946  -0.0004663   0.0006527  -0.0000993   0.0003662
           H10Y16       -0.0000704  -0.0006527   0.0008782  -0.0004223  -0.0001047
           H10Z16        0.0000860   0.0000993  -0.0004223   0.0003361  -0.0001570
           H11X17       -0.0001307   0.0003662   0.0001047   0.0001570  -0.0019148
           H11Y17        0.0000201  -0.0003894   0.0004727  -0.0001262  -0.0004973
           H11Z17        0.0001867  -0.0001671   0.0000050  -0.0001276   0.0011619
           H12X18        0.0015847   0.0010057  -0.0001853   0.0004068   0.0001128
           H12Y18        0.0003123   0.0001853   0.0009340  -0.0026586   0.0006670
           H12Z18        0.0005656  -0.0004068  -0.0026586  -0.0075137   0.0003910
                             H3Y9        H3Z9        H4X10       H4Y10       H4Z10   
           H3Y9          0.0950622
           H3Z9         -0.0493220   0.1258828
           H4X10        -0.0004050   0.0010002   0.0636513
           H4Y10         0.0007517  -0.0003047  -0.0000002   0.3480454
           H4Z10        -0.0007711   0.0006215   0.0000000  -0.0170065   0.0589202
           H5X11        -0.0008292   0.0007983  -0.0003493   0.0000000   0.0000000
           H5Y11         0.0000801  -0.0006003  -0.0000000  -0.0127687  -0.0347662
           H5Z11        -0.0002356   0.0007634   0.0000000  -0.0006247   0.0033104
           H6X12         0.0003040  -0.0003733  -0.0001544  -0.0000000   0.0000000
           H6Y12         0.0004727   0.0000882   0.0000000   0.0000586  -0.0002114
           H6Z12        -0.0002742   0.0002472  -0.0000000  -0.0002114   0.0001080
           H7X13         0.0003711   0.0022682   0.0001407  -0.0000000   0.0000000
           H7Y13         0.0004946   0.0005014   0.0000000  -0.0000312  -0.0000209
           H7Z13        -0.0003600  -0.0012761  -0.0000000   0.0001408  -0.0000779
           H8X14        -0.0000349   0.0001307  -0.0000085  -0.0000567  -0.0000493
           H8Y14        -0.0000564   0.0000201   0.0003040   0.0004727  -0.0002742
           H8Z14         0.0000201   0.0001867  -0.0003733   0.0000882   0.0002472
           H9X15        -0.0000181   0.0000946   0.0001355   0.0000394   0.0002481
           H9Y15        -0.0000312  -0.0000704   0.0006921   0.0008782  -0.0003541
           H9Z15         0.0000104   0.0000860   0.0004468   0.0007764  -0.0002657
           H10X16        0.0003894   0.0001671  -0.0053838  -0.0023950   0.0032822
           H10Y16        0.0004727   0.0000050  -0.0022098   0.0009340   0.0014897
           H10Z16       -0.0001262  -0.0001276   0.0040958   0.0011688  -0.0011241
           H11X17        0.0004973  -0.0011619   0.0011679  -0.0008064  -0.0004902
           H11Y17        0.0004946  -0.0001414   0.0004050   0.0007517  -0.0007711
           H11Z17       -0.0001414   0.0006400  -0.0010002  -0.0003047   0.0006215
           H12X18        0.0004652  -0.0001190   0.0001355  -0.0000394  -0.0002481
           H12Y18        0.0007517  -0.0005460  -0.0006921   0.0008782  -0.0003541
           H12Z18        0.0007363   0.0016766  -0.0004468   0.0007764  -0.0002657
                             H5X11       H5Y11       H5Z11       H6X12       H6Y12   
           H5X11         0.0620373
           H5Y11        -0.0000000   0.0950622
           H5Z11        -0.0000000   0.0986438   0.3174189
           H6X12         0.0001407  -0.0000000   0.0000000   0.0636512
           H6Y12         0.0000000  -0.0000312   0.0001408   0.0000003   0.3480456
           H6Z12        -0.0000000  -0.0000209  -0.0000779  -0.0000000  -0.0170047
           H7X13         0.0002621   0.0000000  -0.0000000  -0.0003493  -0.0000000
           H7Y13        -0.0000000  -0.0000564  -0.0000403  -0.0000000  -0.0127685
           H7Z13         0.0000000  -0.0000403  -0.0000396   0.0000000  -0.0006248
           H8X14         0.0000013  -0.0001262  -0.0000557   0.0011678   0.0008064
           H8Y14         0.0003711   0.0004946  -0.0003600  -0.0004051   0.0007517
           H8Z14         0.0022682   0.0005013  -0.0012761   0.0010002  -0.0003047
           H9X15         0.0000002  -0.0000855  -0.0000543  -0.0053838   0.0023951
           H9Y15         0.0000480   0.0004727  -0.0000932   0.0022098   0.0009340
           H9Z15        -0.0003784   0.0004003   0.0002384  -0.0040958   0.0011688
           H10X16        0.0014035   0.0008703  -0.0003542   0.0001355  -0.0000394
           H10Y16       -0.0001394   0.0007517   0.0008507  -0.0006921   0.0008782
           H10Z16       -0.0008642   0.0000348   0.0003859  -0.0004468   0.0007764
           H11X17        0.0008877   0.0006187   0.0005830  -0.0000085   0.0000567
           H11Y17        0.0008292   0.0000801  -0.0002356  -0.0003040   0.0004727
           H11Z17       -0.0007983  -0.0006003   0.0007634   0.0003733   0.0000882
           H12X18        0.0000002   0.0000855   0.0000543  -0.0053838  -0.0023951
           H12Y18       -0.0000480   0.0004727  -0.0000932  -0.0022098   0.0009340
           H12Z18        0.0003784   0.0004003   0.0002384   0.0040958   0.0011688
                             H6Z12       H7X13       H7Y13       H7Z13       H8X14   
           H6Z12         0.0589201
           H7X13        -0.0000000   0.0620372
           H7Y13        -0.0347663   0.0000000   0.0950610
           H7Z13         0.0033101   0.0000001   0.0986425   0.3174201
           H8X14         0.0004902   0.0008877  -0.0006187  -0.0005830   0.2535744
           H8Y14        -0.0007711  -0.0008292   0.0000801  -0.0002356   0.0854269
           H8Z14         0.0006215   0.0007983  -0.0006003   0.0007634  -0.1105840
           H9X15        -0.0032822   0.0014035  -0.0008703   0.0003542   0.0023953
           H9Y15         0.0014898   0.0001394   0.0007517   0.0008507  -0.0005411
           H9Z15        -0.0011241   0.0008642   0.0000347   0.0003859  -0.0015846
           H10X16       -0.0002482   0.0000002   0.0000855   0.0000543   0.0001128
           H10Y16       -0.0003540  -0.0000480   0.0004727  -0.0000932   0.0006670
           H10Z16       -0.0002657   0.0003784   0.0004003   0.0002384   0.0003910
           H11X17        0.0000493   0.0000013   0.0001262   0.0000557   0.0007012
           H11Y17       -0.0002742  -0.0003711   0.0004946  -0.0003600   0.0002105
           H11Z17        0.0002472  -0.0022682   0.0005014  -0.0012761   0.0006907
           H12X18        0.0032822   0.0014035   0.0008703  -0.0003542   0.0003663
           H12Y18        0.0014898  -0.0001394   0.0007517   0.0008507  -0.0001047
           H12Z18       -0.0011241  -0.0008642   0.0000347   0.0003859  -0.0001570
                             H8Y14       H8Z14       H9X15       H9Y15       H9Z15   
           H8Y14         0.0950610
           H8Z14        -0.0493212   0.1258829
           H9X15        -0.0301085  -0.0015846   0.0601029
           H9Y15        -0.0127685   0.0003124  -0.0147264   0.3480456
           H9Z15         0.0173832   0.0005656   0.0020486   0.0085025   0.0624684
           H10X16        0.0004652  -0.0001190   0.0010057  -0.0001853   0.0004068
           H10Y16        0.0007517  -0.0005460   0.0001853   0.0009340  -0.0026586
           H10Z16        0.0007363   0.0016766  -0.0004068  -0.0026586  -0.0075137
           H11X17       -0.0002105  -0.0006907   0.0001127  -0.0006670  -0.0003910
           H11Y17        0.0000801   0.0008359  -0.0004652   0.0007517   0.0007363
           H11Z17        0.0008359   0.0009498   0.0001190  -0.0005460   0.0016766
           H12X18        0.0003894   0.0001671  -0.0004663   0.0006527  -0.0000993
           H12Y18        0.0004727   0.0000050  -0.0006527   0.0008782  -0.0004223
           H12Z18       -0.0001262  -0.0001276   0.0000993  -0.0004223   0.0003361
                             H10X16      H10Y16      H10Z16      H11X17      H11Y17  
           H10X16        0.0601029
           H10Y16        0.0147275   0.3480455
           H10Z16       -0.0020486   0.0085024   0.0624685
           H11X17        0.0023954   0.0005410   0.0015847   0.2535739
           H11Y17        0.0301085  -0.0127686   0.0173831  -0.0854275   0.0950616
           H11Z17        0.0015846   0.0003124   0.0005655   0.1105838  -0.0493216
           H12X18        0.0000424   0.0001831   0.0001136  -0.0000233   0.0000181
           H12Y18        0.0001831   0.0000586   0.0001057  -0.0001219  -0.0000312
           H12Z18        0.0001136   0.0001057  -0.0000888  -0.0000946   0.0000104
                             H11Z17      H12X18      H12Y18      H12Z18  
           H11Z17        0.1258829
           H12X18       -0.0000946   0.0601029
           H12Y18       -0.0000704   0.0147270   0.3480455
           H12Z18        0.0000860  -0.0020486   0.0085032   0.0624685


 Mass Weighted 2nd Derivative Matrix Eigenvalues
   1- 10    0.000000    0.000000    0.000000    0.000000    0.000000    0.000000    0.002302    0.002302    0.006118    0.007901
  11- 20    0.007901    0.011832    0.027176    0.027659    0.027659    0.031872    0.031872    0.036848    0.036848    0.045821
  21- 30    0.045821    0.048003    0.049968    0.051869    0.057070    0.062363    0.072646    0.072646    0.073815    0.073815
  31- 40    0.080683    0.085516    0.085522    0.085522    0.086385    0.086385    0.097261    0.097261    0.098532    0.098532
  41- 50    0.098567    0.101067    0.372393    0.372393    0.373375    0.373379    0.373379    0.373840    0.383654    0.383654
  51- 54    0.384121    0.384121    0.385445    0.387118

 Mass Weighted 2nd Derivative Matrix Eigenvectors
              1             2             3             4             5             6             7             8
    1     0.0000000     0.4901614     0.0000000     0.1808287     0.0000000     0.0000000    -0.1193488    -0.0555688
    2     0.2129091    -0.1343098     0.3115980     0.3640656    -0.0964854    -0.2440027    -0.1496951     0.3215076
    3    -0.2683149    -0.0131556     0.2407383     0.0356599     0.1176290    -0.0530830    -0.0494687     0.1062453
    4     0.0251765     0.3355561    -0.0606122     0.1953606     0.1552491    -0.0100408     0.0953294    -0.0744771
    5     0.3600633    -0.1125703     0.2557694     0.1411587     0.2831083    -0.2324682     0.3532812    -0.0311155
    6    -0.2199607     0.2682144     0.3108327    -0.1288116     0.0859495    -0.0284835    -0.0683754    -0.1084321
    7    -0.0771963     0.0525486    -0.1547200     0.3308906     0.1156699     0.1541024     0.0043659     0.1208935
    8     0.3721765    -0.0206755     0.1942159    -0.1079350     0.3954493     0.1309973    -0.2035871    -0.2903910
    9    -0.2237458     0.2395002     0.3300660    -0.0509780     0.0508466    -0.1420543     0.1269958    -0.0174679
   10    -0.0520191    -0.1020566    -0.2153322     0.3454221     0.2709202     0.1440609    -0.1193487    -0.0555690
   11     0.2371356     0.0494798     0.1884911    -0.1341218     0.1281970     0.4829279    -0.1496925     0.3215054
   12    -0.2645299     0.0155586     0.2215049    -0.0421739     0.1527320     0.0604882    -0.0494677     0.1062467
   13    -0.0771964     0.0525486    -0.1547200     0.3308907     0.1156695     0.1541026     0.0953301    -0.0744758
   14     0.0899816     0.0277403     0.2443197     0.0887848    -0.2513962     0.4713935     0.3532782    -0.0311138
   15    -0.3128840    -0.2658114     0.1514109     0.1222986     0.1844110     0.0358870    -0.0683762    -0.1084328
[...]
           H12X18          -0.23637     0.02328    -0.01030    -0.02037    -0.01713
           H12Y18           0.03170     0.49210    -0.23457    -0.39086    -0.46220
           H12Z18          -0.13647     0.01273    -0.00745    -0.01176    -0.00960

                             41 A        42 A        43 A        44 A        45 A  
 Wavenumbers [cm-1]         3141.08     3143.02     3184.01     3184.01     3185.95
 Intensities [km/mol]          0.00        0.00        0.00        0.00        0.00
 Intensities [relative]        0.00        0.00        0.00        0.00        0.00
           C1X1            -0.00041    -0.00000     0.00034     0.00068     0.00018
           C1Y1            -0.02296     0.01314    -0.02070     0.01043    -0.03509
           C1Z1             0.01999    -0.02392    -0.03759     0.01894    -0.03141
           C2X2             0.02082    -0.02072     0.00245    -0.03638    -0.00357
           C2Y2            -0.02776     0.01314     0.00132    -0.02314    -0.00432
           C2Z2            -0.01228     0.01196    -0.00054     0.02105     0.00156
           C3X3            -0.00394     0.02072    -0.03069    -0.01968    -0.02398
           C3Y3            -0.00479     0.01314     0.01938     0.01271     0.03077
           C3Z3            -0.00153     0.01196    -0.01724    -0.01209    -0.01354
           C4X4             0.00041     0.00000     0.00034     0.00068    -0.00018
           C4Y4             0.02295     0.01314    -0.02070     0.01043     0.03509
           C4Z4            -0.01999    -0.02392    -0.03759     0.01894     0.03141
           C5X5            -0.02081    -0.02072     0.00245    -0.03638     0.00357
           C5Y5             0.02775     0.01314     0.00132    -0.02314     0.00432
           C5Z5             0.01228     0.01196    -0.00054     0.02105    -0.00156
           C6X6             0.00394     0.02072    -0.03069    -0.01968     0.02398
           C6Y6             0.00479     0.01314     0.01938     0.01271    -0.03077
           C6Z6             0.00153     0.01196    -0.01724    -0.01209     0.01354
           H1X7             0.04105    -0.23533     0.36899     0.24012     0.30154
           H1Y7            -0.01897     0.10934    -0.15997    -0.10492    -0.12952
           H1Z7             0.01954    -0.13587     0.21104     0.14168     0.17384
           H2X8            -0.01640     0.00805    -0.00015    -0.01003    -0.00420
           H2Y8             0.43820    -0.26575    -0.00511     0.08981     0.03300
           H2Z8             0.00883    -0.00465    -0.00157     0.00570    -0.00206
           H3X9            -0.22664     0.23533    -0.02660     0.43943     0.04250
           H3Y9            -0.10987     0.10934    -0.01088     0.19100     0.01818
           H3Z9             0.13234    -0.13587     0.01172    -0.25391    -0.02412
           H4X10           -0.00100     0.00000    -0.00065    -0.00128     0.00156
           H4Y10            0.36244    -0.26575     0.08034    -0.04048     0.26803
           H4Z10           -0.01540     0.00930    -0.01032     0.00520    -0.02116
           H5X11            0.00232    -0.00000    -0.00142    -0.00282    -0.00014
           H5Y11           -0.09089     0.10934     0.17085    -0.08608     0.14771
           H5Z11           -0.21712     0.27173     0.45397    -0.22874     0.39693
           H6X12            0.00100    -0.00000    -0.00065    -0.00128    -0.00156
           H6Y12           -0.36243    -0.26575     0.08034    -0.04048    -0.26803
           H6Z12            0.01540     0.00930    -0.01032     0.00520     0.02116
           H7X13           -0.00232     0.00000    -0.00142    -0.00282     0.00014
           H7Y13            0.09089     0.10934     0.17085    -0.08608    -0.14771
           H7Z13            0.21712     0.27174     0.45397    -0.22873    -0.39693
           H8X14            0.22663     0.23533    -0.02660     0.43943    -0.04250
           H8Y14            0.10987     0.10934    -0.01087     0.19100    -0.01818
           H8Z14           -0.13234    -0.13587     0.01172    -0.25391     0.02412
           H9X15            0.01640     0.00805    -0.00015    -0.01003     0.00420
           H9Y15           -0.43819    -0.26575    -0.00511     0.08982    -0.03300
           H9Z15           -0.00883    -0.00465    -0.00157     0.00570     0.00206
           H10X16          -0.00201    -0.00805    -0.00797    -0.00609     0.01723
           H10Y16          -0.07562    -0.26575    -0.07522    -0.04934     0.23503
           H10Z16          -0.00295    -0.00465    -0.00551    -0.00213     0.00727
           H11X17          -0.04105    -0.23533     0.36899     0.24011    -0.30154
           H11Y17           0.01897     0.10934    -0.15998    -0.10492     0.12952
           H11Z17          -0.01953    -0.13587     0.21104     0.14167    -0.17384
           H12X18           0.00201    -0.00805    -0.00797    -0.00609    -0.01723
           H12Y18           0.07561    -0.26575    -0.07522    -0.04934    -0.23503
           H12Z18           0.00295    -0.00465    -0.00551    -0.00213    -0.00727

                             46 A        47 A        48 A  
 Wavenumbers [cm-1]         3185.95     3191.43     3198.35
 Intensities [km/mol]          0.00        0.00        0.00
 Intensities [relative]        0.00        0.00        0.00
           C1X1            -0.00040     0.00000     0.00000
           C1Y1            -0.01527    -0.01052    -0.03159
           C1Z1            -0.01367    -0.03118    -0.01856
           C2X2            -0.02945     0.02701    -0.01607
           C2Y2            -0.03803     0.01052    -0.03159
           C2Z2             0.01706    -0.01559     0.00928
           C3X3             0.01746     0.02701     0.01607
           C3Y3            -0.02276    -0.01052    -0.03159
           C3Z3             0.01049     0.01559     0.00928
           C4X4             0.00040     0.00000    -0.00000
           C4Y4             0.01527     0.01052    -0.03159
           C4Z4             0.01367     0.03118    -0.01856
           C5X5             0.02945    -0.02701    -0.01607
           C5Y5             0.03803    -0.01052    -0.03159
           C5Z5            -0.01706     0.01559     0.00928
           C6X6            -0.01746    -0.02701     0.01607
           C6Y6             0.02276     0.01052    -0.03159
           C6Z6            -0.01049    -0.01559     0.00928
           H1X7            -0.22275    -0.31645    -0.21032
           H1Y7             0.09578     0.13756     0.09021
           H1Z7            -0.12894    -0.18270    -0.12143
           H2X8            -0.01964     0.00353    -0.01910
           H2Y8             0.29044     0.00358     0.28597
           H2Z8             0.01185    -0.00204     0.01103
           H3X9             0.37247    -0.31645     0.21033
           H3Y9             0.16006    -0.13756     0.09021
           H3Z9            -0.21509     0.18270    -0.12143
           H4X10           -0.00358     0.00000    -0.00000
           H4Y10            0.11664    -0.00358     0.28597
           H4Z10           -0.00921    -0.00408    -0.02205
           H5X11            0.00033    -0.00000    -0.00000
           H5Y11            0.06428     0.13756     0.09021
           H5Z11            0.17274     0.36541     0.24286
           H6X12            0.00358    -0.00000     0.00000
           H6Y12           -0.11665     0.00358     0.28597
           H6Z12            0.00921     0.00408    -0.02205
           H7X13           -0.00033    -0.00000     0.00000
           H7Y13           -0.06428    -0.13756     0.09021
           H7Z13           -0.17274    -0.36541     0.24286
           H8X14           -0.37247     0.31646     0.21032
           H8Y14           -0.16006     0.13756     0.09021
           H8Z14            0.21509    -0.18271    -0.12143
           H9X15            0.01964    -0.00353    -0.01910
           H9Y15           -0.29044    -0.00358     0.28597
           H9Z15           -0.01185     0.00204     0.01103
           H10X16          -0.01031    -0.00353     0.01910
           H10Y16          -0.17380     0.00358     0.28597
           H10Z16          -0.00958    -0.00204     0.01103
           H11X17           0.22275     0.31645    -0.21032
           H11Y17          -0.09578    -0.13756     0.09021
           H11Z17           0.12894     0.18271    -0.12143
           H12X18           0.01031     0.00353     0.01910
           H12Y18           0.17380    -0.00358     0.28597
           H12Z18           0.00958     0.00204     0.01103


 Normal Modes of low/zero frequencies

                                  1           2           3           4           5
 Wavenumbers [cm-1]            0.00        0.00        0.00        0.00        0.00
 Intensities [km/mol]          0.00        0.00        0.00        0.00        0.00
 Intensities [relative]        0.00        0.00        0.00        0.00        0.00
           C1X1             0.00000     0.14150     0.00000     0.05220     0.00000
           C1Y1             0.06146    -0.03877     0.08995     0.10510    -0.02785
           C1Z1            -0.07746    -0.00380     0.06950     0.01029     0.03396
           C2X2             0.00727     0.09687    -0.01750     0.05640     0.04482
           C2Y2             0.10394    -0.03250     0.07383     0.04075     0.08173
           C2Z2            -0.06350     0.07743     0.08973    -0.03718     0.02481
           C3X3            -0.02228     0.01517    -0.04466     0.09552     0.03339
           C3Y3             0.10744    -0.00597     0.05607    -0.03116     0.11416
           C3Z3            -0.06459     0.06914     0.09528    -0.01472     0.01468
           C4X4            -0.01502    -0.02946    -0.06216     0.09971     0.07821
           C4Y4             0.06846     0.01428     0.05441    -0.03872     0.03701
           C4Z4            -0.07636     0.00449     0.06394    -0.01217     0.04409
           C5X5            -0.02228     0.01517    -0.04466     0.09552     0.03339
           C5Y5             0.02598     0.00801     0.07053     0.02563    -0.07257
           C5Z5            -0.09032    -0.07673     0.04371     0.03530     0.05323
           C6X6             0.00727     0.09687    -0.01750     0.05640     0.04482
           C6Y6             0.02248    -0.01852     0.08830     0.09754    -0.10500
           C6Z6            -0.08923    -0.06844     0.03816     0.01284     0.06337
           H1X7            -0.01534    -0.01629    -0.05720     0.09714     0.06896
           H1Y7             0.13707    -0.00159     0.04482    -0.07604     0.19059
           H1Z7            -0.05471     0.12686     0.10869    -0.05071     0.00959
           H2X8             0.04262     0.09289    -0.02299     0.03131     0.12450
           H2Y8             0.10582    -0.03347     0.07391     0.04111     0.08544
           H2Z8            -0.06028     0.10068     0.07775    -0.09189     0.04801
           H3X9             0.00032     0.12832    -0.00496     0.05478     0.00925
           H3Y9             0.13113    -0.04662     0.07499     0.04602     0.13554
           H3Z9            -0.05542     0.12146     0.11230    -0.03608     0.00300
           H4X10           -0.03428     0.15156     0.00765     0.07521    -0.08129
           H4Y10            0.06129    -0.04005     0.09081     0.10856    -0.02941
           H4Z10           -0.08006    -0.02354     0.08272     0.06380     0.00983
           H5X11            0.02249     0.19816     0.01862     0.02360     0.01228
           H5Y11            0.05902    -0.05728     0.10235     0.15526    -0.05047
           H5Z11           -0.07655     0.00304     0.06491    -0.00825     0.04232
           H6X12            0.01926    -0.03952    -0.06981     0.07671     0.15949
           H6Y12            0.06862     0.01556     0.05356    -0.04218     0.03857
           H6Z12           -0.07376     0.02423     0.05072    -0.06568     0.06822
           H7X13           -0.03751    -0.08613    -0.08078     0.12832     0.06593
           H7Y13            0.07089     0.03279     0.04202    -0.08888     0.05963
           H7Z13           -0.07727    -0.00235     0.06853     0.00637     0.03573
           H8X14           -0.01534    -0.01629    -0.05720     0.09714     0.06896
           H8Y14           -0.00122     0.02214     0.06938     0.02036    -0.12639
           H8Z14           -0.09839    -0.12077     0.02114     0.03420     0.07505
           H9X15           -0.05764     0.01915    -0.03917     0.12061    -0.04629
           H9Y15            0.02410     0.00898     0.07045     0.02527    -0.07629
           H9Z15           -0.09354    -0.09998     0.05569     0.09001     0.03003
           H10X16           0.04262     0.09289    -0.02299     0.03131     0.12450
           H10Y16           0.02043    -0.01882     0.08907     0.10064    -0.11028
           H10Z16          -0.08725    -0.05222     0.02369    -0.03946     0.08843
           H11X17           0.00032     0.12832    -0.00496     0.05478     0.00925
           H11Y17          -0.00715    -0.02290     0.09954     0.14242    -0.18144
           H11Z17          -0.09911    -0.12616     0.02475     0.04883     0.06845
           H12X18          -0.05764     0.01915    -0.03917     0.12061    -0.04629
           H12Y18           0.10948    -0.00567     0.05529    -0.03426     0.11943
           H12Z18          -0.06657     0.05291     0.10974     0.03758    -0.01038

                                  6
 Wavenumbers [cm-1]            0.00
 Intensities [km/mol]          0.00
 Intensities [relative]        0.00
           C1X1            -0.00000
           C1Y1            -0.07044
           C1Z1            -0.01532
           C2X2            -0.00290
           C2Y2            -0.06711
           C2Z2            -0.00822
           C3X3             0.04449
           C3Y3             0.03782
           C3Z3            -0.04101
           C4X4             0.04159
           C4Y4             0.13941
           C4Z4             0.01746
           C5X5             0.04449
           C5Y5             0.13608
           C5Z5             0.01036
           C6X6            -0.00290
           C6Y6             0.03116
           C6Z6             0.04315
           H1X7             0.04020
           H1Y7             0.04014
           H1Z7            -0.03186
           H2X8            -0.04583
           H2Y8            -0.07200
           H2Z8             0.06861
           H3X9             0.00139
           H3Y9            -0.13798
           H3Z9            -0.05320
           H4X10            0.04078
           H4Y10           -0.07549
           H4Z10           -0.09339
           H5X11           -0.03532
           H5Y11           -0.14363
           H5Z11            0.01174
           H6X12            0.00080
           H6Y12            0.14446
           H6Z12            0.09553
           H7X13            0.07691
           H7Y13            0.21260
           H7Z13           -0.00960
           H8X14            0.04020
           H8Y14            0.20695
           H8Z14            0.05534
           H9X15            0.08741
           H9Y15            0.14097
           H9Z15           -0.06647
           H10X16          -0.04583
           H10Y16           0.03100
           H10Z16           0.12245
           H11X17           0.00139
           H11Y17           0.02883
           H11Z17           0.03400
           H12X18           0.08741
           H12Y18           0.03798
           H12Z18          -0.12031


 Frequencies dumped to record   5400.2

 Zero point energy:  0.18020391 [H]    39550.19 [1/CM]      473.13 [KJ/MOL]
 Frequency information read from record  5400.2


 **********************************************************************************************************************************
 DATASETS  * FILE   NREC   LENGTH (MB)   RECORD NAMES
              1      18       30.02       500      610      700      900      950      970     1000      129      960     1100   
                                          VAR    BASINP    GEOM    SYMINP    ZMAT    AOBASIS   BASIS     P2S    ABASIS      S 
                                         1400     1410     1200     1210     1080     1600     1650     1700   
                                           T        V       H0       H01     AOSYM     SMH    MOLCAS    OPER   

              2       7        1.63       700     1000      520     2100     5300     5450     5400   
                                         GEOM     BASIS   MCVARS     RHF     HESS     NMOD     FREQ   

              4       5       27.02      4100     4000     4200     4300     4400   

 PROGRAMS   *        TOTAL      FREQ      OPTG    HF-SCF       INT
 CPU TIMES  *       301.17    128.20    163.60      1.57      7.51
 REAL TIME  *       325.76 SEC
 DISK USED  *        33.47 MB (local),        2.44 GB (total)
 SF USED    *        27.02 MB
 GA USED    *         0.01 MB       (max)       0.00 MB       (current)
 **********************************************************************************************************************************

 Dump information in style MOLDEN to c6h12.molden                                                                    

 Molecular orbitals read from record     2100.2  Type=RHF/CANONICAL  
 Occupation numbers read from record     2100.2  Type=RHF/RHF  
 Orbital energies read from record       2100.2  Type=RHF/CANONICAL  
 Redundancy group numbers read from rec  2100.2  Type=RHF/RHF  

 DUMP ORBITAL  1.1 AS ORBITAL    1  occ=    2.0000  eig=  -11.2109  GROUP=   2
 DUMP ORBITAL  2.1 AS ORBITAL    2  occ=    2.0000  eig=  -11.2106  GROUP=   2
 DUMP ORBITAL  3.1 AS ORBITAL    3  occ=    2.0000  eig=  -11.2106  GROUP=   2
 DUMP ORBITAL  4.1 AS ORBITAL    4  occ=    2.0000  eig=  -11.2100  GROUP=   2
 DUMP ORBITAL  5.1 AS ORBITAL    5  occ=    2.0000  eig=  -11.2100  GROUP=   2
 DUMP ORBITAL  6.1 AS ORBITAL    6  occ=    2.0000  eig=  -11.2097  GROUP=   2
 DUMP ORBITAL  7.1 AS ORBITAL    7  occ=    2.0000  eig=   -1.1114  GROUP=   2
 DUMP ORBITAL  8.1 AS ORBITAL    8  occ=    2.0000  eig=   -1.0003  GROUP=   2
 DUMP ORBITAL  9.1 AS ORBITAL    9  occ=    2.0000  eig=   -1.0003  GROUP=   2
 DUMP ORBITAL 10.1 AS ORBITAL   10  occ=    2.0000  eig=   -0.8280  GROUP=   2
 DUMP ORBITAL 11.1 AS ORBITAL   11  occ=    2.0000  eig=   -0.8280  GROUP=   2
 DUMP ORBITAL 12.1 AS ORBITAL   12  occ=    2.0000  eig=   -0.7501  GROUP=   2
 DUMP ORBITAL 13.1 AS ORBITAL   13  occ=    2.0000  eig=   -0.6471  GROUP=   2
 DUMP ORBITAL 14.1 AS ORBITAL   14  occ=    2.0000  eig=   -0.6076  GROUP=   2
 DUMP ORBITAL 15.1 AS ORBITAL   15  occ=    2.0000  eig=   -0.5957  GROUP=   2
 DUMP ORBITAL 16.1 AS ORBITAL   16  occ=    2.0000  eig=   -0.5957  GROUP=   2
 DUMP ORBITAL 17.1 AS ORBITAL   17  occ=    2.0000  eig=   -0.5240  GROUP=   2
 DUMP ORBITAL 18.1 AS ORBITAL   18  occ=    2.0000  eig=   -0.5240  GROUP=   2
 DUMP ORBITAL 19.1 AS ORBITAL   19  occ=    2.0000  eig=   -0.5111  GROUP=   2
 DUMP ORBITAL 20.1 AS ORBITAL   20  occ=    2.0000  eig=   -0.4803  GROUP=   2
 DUMP ORBITAL 21.1 AS ORBITAL   21  occ=    2.0000  eig=   -0.4803  GROUP=   2
 DUMP ORBITAL 22.1 AS ORBITAL   22  occ=    2.0000  eig=   -0.4487  GROUP=   2
 DUMP ORBITAL 23.1 AS ORBITAL   23  occ=    2.0000  eig=   -0.4251  GROUP=   2
 DUMP ORBITAL 24.1 AS ORBITAL   24  occ=    2.0000  eig=   -0.4251  GROUP=   2

 Total charge:      48.000000
 Frequency information read from record  5400.2

 **********************************************************************************************************************************

 HF/6-311G(D,P)//HF/6-311G(D,P) energy=   -234.263576813939

    OPTG(HF-SCF)          HF-SCF
   -234.26357681   -234.26341847
 **********************************************************************************************************************************
 Molpro calculation terminated
