
 Working directory              : /scratch/koe/tmpdir_768878/molpro.JNFEk1p2Uw/
 Global scratch directory       : /scratch/koe/tmpdir_768878/molpro.JNFEk1p2Uw/
 Wavefunction directory         : /home/koe/final_calc_paper/ch3oh/
 Main file repository           : /home/koe/final_calc_paper/ch3oh/

 id        : liedlgroup

 Nodes     nprocs
 rune03      10
 GA implementation: MPI file
 GA implementation (serial work in mppx): MPI file

 Using customized tuning parameters: mindgm=1; mindgv=20; mindgc=4; mindgr=1; noblas=0; minvec=7
 default implementation of scratch files=sf  


 Variables initialized (1015), CPU time= 0.01 sec
 ***,methanol
 memory,100,m
 gthresh,optgrad=1.d-7,twoint=1.d-14,prefac=1.d-16
 orient,mass
 geometry={
 H1
 O,H1,roh
 C,O,rco,H1,coh
 H2,C,rch,O,hco,H1,180.0
 H3,C,rch,O,hco,H1,D1
 H4,C,rch,O,hco,H1,-D1
 }
 
 roh=0.96 ANG
 rco=1.43 ANG
 coh=108.9 DEGREE
 rch=1.10 ANG
 hco=109 DEGREE
 D1=60 DEGREE,
 
 mass,iso
 basis=6-311g(d,p)
 
 {hf
 start,atden}
 
 
 optg
 {frequencies, symm=auto, print=0,analytical}
 put,molden,ch3oh.molden
 
 Commands initialized (818), CPU time= 0.01 sec, 672 directives.
 Default parameters read. Elapsed time= 0.16 sec

 Checking input...
 Passed
1


                                         ***  PROGRAM SYSTEM MOLPRO  ***
                                       Copyright, TTI GmbH Stuttgart, 2015
                                    Version 2022.1 linked Jan 25 2022 12:44:58


 **********************************************************************************************************************************
 LABEL *   methanol                                                                      
  64 bit mpp version                                                                     DATE: 25-Aug-23          TIME: 15:47:14  
 **********************************************************************************************************************************

 SHA1:             f3d4322b9bdbeed63a35be676bd653804e8a9433
 **********************************************************************************************************************************

 Memory per process:       100 MW
 Total memory per node:   1000 MW

 GA preallocation disabled
 GA check disabled

 Variable memory set to 100.0 MW


 THRESHOLDS:

 ZERO    =  1.00D-12  ONEINT  =  1.00D-12  TWOINT  =  1.00D-14  PREFAC  =  1.00D-16  XXXXXX  =  1.00D-09  EORDER  =  1.00D-04
 ENERGY  =  0.00D+00  ETEST   =  0.00D+00  EDENS   =  0.00D+00  THRDEDEF=  1.00D-06  GRADIENT=  1.00D-05  STEP    =  1.00D-03
 ORBITAL =  1.00D-05  CIVEC   =  1.00D-05  COEFF   =  1.00D-04  PRINTCI =  5.00D-02  PUNCHCI =  9.90D+01  OPTGRAD =  1.00D-07
 OPTENERG=  1.00D-06  OPTSTEP =  3.00D-04  THRGRAD =  1.00D-10  COMPRESS=  1.00D-11  VARMIN  =  1.00D-07  VARMAX  =  1.00D-03
 THRDOUB =  0.00D+00  THRDIV  =  1.00D-05  THRRED  =  1.00D-07  THRPSP  =  1.00D+00  THRDC   =  1.00D-10  THRCS   =  1.00D-10
 THRNRM  =  1.00D-08  THREQ   =  0.00D+00  THRDE   =  1.00D+00  THRREF  =  1.00D-05  SPARFAC =  1.00D+00  THRDLP  =  1.00D-07
 THRDIA  =  1.00D-10  THRDLS  =  1.00D-07  THRGPS  =  0.00D+00  THRKEX  =  0.00D+00  THRDIS  =  2.00D-01  THRVAR  =  1.00D-10
 THRLOC  =  1.00D-06  THRGAP  =  1.00D-06  THRLOCT = -1.00D+00  THRGAPT = -1.00D+00  THRORB  =  1.00D-06  THRMLTP =  0.00D+00
 THRCPQCI=  1.00D-10  KEXTA   =  0.00D+00  THRCOARS=  0.00D+00  SYMTOL  =  1.00D-06  GRADTOL =  1.00D-06  THROVL  =  1.00D-08
 THRORTH =  1.00D-08  THRDLOVL= -1.00D+00  GRID    =  1.00D-06  GRIDMAX =  1.00D-03  DTMAX   =  0.00D+00  THROCCDE=  1.00D-01
 THROCCDE=  1.00D-01  THRPRINT=  2.50D-01

 ZCENTRE=MASS

 SETTING ROH            =         0.96000000  ANG                             
 SETTING RCO            =         1.43000000  ANG                             
 SETTING COH            =       108.90000000  DEGREE                          
 SETTING RCH            =         1.10000000  ANG                             
 SETTING HCO            =       109.00000000  DEGREE                          
 SETTING D1             =        60.00000000  DEGREE                          


 Using masses of most abundant isotopes

 **********************************************************************************************************************************
 SETTING BASIS          =    6-311G(D,P)


 Recomputing integrals since basis changed


 Using spherical harmonics

 Library entry H      S 6-311G               selected for orbital group  1
 Library entry H      P 6-311G**             selected for orbital group  1
 Library entry O      S 6-311G               selected for orbital group  2
 Library entry O      P 6-311G               selected for orbital group  2
 Library entry O      D 6-311G*              selected for orbital group  2
 Library entry C      S 6-311G               selected for orbital group  3
 Library entry C      P 6-311G               selected for orbital group  3
 Library entry C      D 6-311G*              selected for orbital group  3


 PROGRAM * SEWARD (Integral evaluation for generally contracted gaussian basis sets)     Author: Roland Lindh, 1990

 Geometry written to block  1 of record 700

 Orientation using atomic masses  
 Molecule type: Asymmetric top
 Symmetry elements: Y
 Rotational constants:      24.6188053     23.7469522    125.5814908 GHz

 Point group  Cs  



 ATOMIC COORDINATES

 NR  ATOM    CHARGE       X              Y              Z

   1  H1      1.00   -1.553527393    0.000000000   -1.990587206
   2  O       8.00    0.127288381    0.000000000   -1.307980674
   3  C       6.00   -0.023693611    0.000000000    1.390106593
   4  H2      1.00    1.900873082    0.000000000    2.175620109
   5  H3      1.00   -1.042694183   -1.702128131    2.010901326
   6  H4      1.00   -1.042694183    1.702128131    2.010901326

 Bond lengths in Bohr (Angstrom)

 1-2  1.814137080  2-3  2.702308358  3-4  2.078698737  3-5  2.078698737  3-6  2.078698737
     ( 0.960000000)     ( 1.430000000)     ( 1.100000000)     ( 1.100000000)     ( 1.100000000)

 Bond angles

  1-2-3  108.90000000   2-3-4  109.00000000   2-3-5  109.00000000   2-3-6  109.00000000

  4-3-5  109.93830275   4-3-6  109.93830275   5-3-6  109.93830275

 NUCLEAR CHARGE:                   18
 NUMBER OF PRIMITIVE AOS:          96
 NUMBER OF SYMMETRY AOS:           94
 NUMBER OF CONTRACTIONS:           60   (   42A'  +   18A"  )
 NUMBER OF INNER CORE ORBITALS:     0   (    0A'  +    0A"  )
 NUMBER OF OUTER CORE ORBITALS:     2   (    2A'  +    0A"  )
 NUMBER OF VALENCE ORBITALS:       12   (    9A'  +    3A"  )


 NUCLEAR REPULSION ENERGY   40.11093182

 Eigenvalues of metric

         1 0.923E-02 0.211E-01 0.240E-01 0.410E-01 0.454E-01 0.584E-01 0.868E-01 0.952E-01
         2 0.241E-01 0.459E-01 0.111E+00 0.199E+00 0.342E+00 0.391E+00 0.441E+00 0.576E+00


 Contracted 2-electron integrals neglected if value below      1.0D-14
 AO integral compression algorithm  1   Integral accuracy      1.0D-14

     9.437 MB (compressed) written to integral file (100.0%)

     Node minimum: 0.524 MB, node maximum: 1.049 MB


 NUMBER OF SORTED TWO-ELECTRON INTEGRALS:      88533.     BUFFER LENGTH:  32768
 NUMBER OF SEGMENTS:   1  SEGMENT LENGTH:      88533      RECORD LENGTH: 524288

 Memory used in sort:       0.65 MW

 SORT1 READ     1110250. AND WROTE       87289. INTEGRALS IN      1 RECORDS. CPU TIME:     0.04 SEC, REAL TIME:     0.06 SEC
 SORT2 READ      872530. AND WROTE      886101. INTEGRALS IN     40 RECORDS. CPU TIME:     0.01 SEC, REAL TIME:     0.01 SEC

 Node minimum:       87891.  Node maximum:       91351. integrals

 OPERATOR DM      FOR CENTER  0  COORDINATES:    0.000000    0.000000    0.000000


 **********************************************************************************************************************************
 DATASETS  * FILE   NREC   LENGTH (MB)   RECORD NAMES
              1      18       28.69       500      610      700      900      950      970     1000      129      960     1100   
                                          VAR    BASINP    GEOM    SYMINP    ZMAT    AOBASIS   BASIS     P2S    ABASIS      S 
                                         1400     1410     1200     1210     1080     1600     1650     1700   
                                           T        V       H0       H01     AOSYM     SMH    MOLCAS    OPER   

 PROGRAMS   *        TOTAL       INT
 CPU TIMES  *         0.35      0.21
 REAL TIME  *         0.62 SEC
 DISK USED  *        29.01 MB (local),      336.71 MB (total)
 GA USED    *         0.00 MB       (max)       0.00 MB       (current)
 **********************************************************************************************************************************


 Program * Restricted Hartree-Fock

 Orbital guess generated from atomic densities. Full valence occupancy:   11   3

 Initial occupancy:   7   2

 NELEC=   18   SYM=1   MS2= 0   THRE=1.0D-08   THRD=1.0D-06   THRG=1.0D-06  HFMA2=F  DIIS_START=2   DIIS_MAX=10   DIIS_INCORE=F

 Level shifts:    0.00 (CLOSED)    0.00 (OPEN)    0.30 (GAP_MIN)

 ITER           ETOT              DE          GRAD        DDIFF     DIIS  NEXP   TIME(IT)  TIME(TOT)  DIAG
   1     -115.03673775    -115.03673775     0.00D+00     0.72D-01     0     0       0.00      0.02    start
   2     -115.06600801      -0.02927026     0.12D-01     0.89D-02     1     0       0.00      0.02    diag
   3     -115.07305649      -0.00704847     0.62D-02     0.29D-02     2     0       0.00      0.02    diag
   4     -115.07354189      -0.00048541     0.12D-02     0.95D-03     3     0       0.00      0.02    diag
   5     -115.07357004      -0.00002815     0.23D-03     0.30D-03     4     0       0.00      0.02    diag
   6     -115.07357100      -0.00000096     0.40D-04     0.58D-04     5     0       0.01      0.03    diag
   7     -115.07357104      -0.00000004     0.85D-05     0.85D-05     6     0       0.00      0.03    diag
   8     -115.07357104      -0.00000000     0.28D-05     0.28D-05     7     0       0.00      0.03    fixocc
   9     -115.07357104      -0.00000000     0.62D-06     0.83D-06     8     0       0.00      0.03    diag
  10     -115.07357104      -0.00000000     0.11D-06     0.12D-06     0     0       0.00      0.03    diag/orth

 Final occupancy:   7   2

 !RHF STATE 1.1 Energy               -115.073571043226
  RHF One-electron energy            -236.557557233446
  RHF Two-electron energy              81.373054370148
  RHF Kinetic energy                  114.960946355314
  RHF Nuclear energy                   40.110931820073
  RHF Virial quotient                  -1.000979677808

 !RHF STATE 1.1 Dipole moment          -0.62153611     0.00000000     0.42318870
 Dipole moment /Debye                  -1.57978721     0.00000000     1.07563838

 Orbital energies:

           1.1          2.1          3.1          4.1          5.1          6.1          7.1          8.1          9.1
    -20.540738   -11.273935    -1.345635    -0.919871    -0.680015    -0.588855    -0.496164     0.153316     0.187545

           1.2          2.2          3.2          4.2
     -0.616303    -0.444210     0.223907     0.471301


 HOMO      2.2    -0.444210 =     -12.0876eV
 LUMO      8.1     0.153316 =       4.1719eV
 LUMO-HOMO         0.597526 =      16.2595eV

 Orbitals saved in record  2100.2


 **********************************************************************************************************************************
 DATASETS  * FILE   NREC   LENGTH (MB)   RECORD NAMES
              1      18       28.69       500      610      700      900      950      970     1000      129      960     1100   
                                          VAR    BASINP    GEOM    SYMINP    ZMAT    AOBASIS   BASIS     P2S    ABASIS      S 
                                         1400     1410     1200     1210     1080     1600     1650     1700   
                                           T        V       H0       H01     AOSYM     SMH    MOLCAS    OPER   

              2       4        0.44       700     1000      520     2100   
                                         GEOM     BASIS   MCVARS     RHF  

 PROGRAMS   *        TOTAL    HF-SCF       INT
 CPU TIMES  *         0.39      0.04      0.21
 REAL TIME  *         0.71 SEC
 DISK USED  *        29.31 MB (local),      339.78 MB (total)
 GA USED    *         0.00 MB       (max)       0.00 MB       (current)
 **********************************************************************************************************************************


 PROGRAM * OPT (Geometry optimization)     Authors: F. Eckert and H.-J. Werner


 BFGS update of hessian

 *** Long output written to logfile /home/koe/final_calc_paper/ch3oh/ch3oh.log ***


 Geometry optimization using default procedure for command HF-SCF

 Geometry written to block  1 of record 700

 Making model hessian for Z-matrix coordinates

 Entering Rational Function Geometry Optimization

 ITER.   ENERGY(OLD)    ENERGY(NEW)      DE          GRADMAX     GRADNORM    GRADRMS     STEPMAX     STEPLEN     STEPRMS   CPU-time
   1  -115.07357104  -115.07512059    -0.00154955  0.03214458  0.04833112  0.01973110  0.03208549  0.05670939  0.00945157      0.24
   2  -115.07512059  -115.07527246    -0.00015187  0.01034878  0.01257816  0.00513501  0.02225800  0.02512507  0.00418751      0.48
   3  -115.07527246  -115.07528364    -0.00001118  0.00248312  0.00372922  0.00152245  0.00414800  0.00574870  0.00095812      0.72
   4  -115.07528364  -115.07528546    -0.00000182  0.00120671  0.00148643  0.00060683  0.00213387  0.00317924  0.00052987      0.97
   5  -115.07528546  -115.07528546    -0.00000001  0.00007762  0.00009746  0.00003979  0.00008937  0.00013590  0.00002265      1.21
   6  -115.07528546  -115.07528546    -0.00000000  0.00001617  0.00002180  0.00000890  0.00003801  0.00004566  0.00000761      1.45
   7  -115.07528546  -115.07528546     0.00000000  0.00000106  0.00000194  0.00000079  0.00000241  0.00000324  0.00000054      1.67
   8  -115.07528546  -115.07528546    -0.00000000  0.00000024  0.00000031  0.00000013  0.00000040  0.00000051  0.00000009      1.89
   9  -115.07528546  -115.07528546     0.00000000  0.00000006  0.00000010  0.00000004  0.00000013  0.00000020  0.00000003      2.12

 END OF GEOMETRY OPTIMIZATION.

 Optimized variables
 ROH=                 0.93921303 ANG
 RCO=                 1.39999403 ANG
 COH=               108.80962504 DEGREE
 RCH=                 1.08617470 ANG
 HCO=               110.51480143 DEGREE
 D1=                 60.45103503 DEGREE

 **********************************************************************************************************************************

 Geometry written to block  1 of record 700

 Recomputing wavefunction for reoriented structure

 Current geometry (xyz format, in Angstrom)

    6
 HF-SCF000/6-311G(D,P)  ENERGY=-115.07528546
 H         -0.8047874348        0.0000000000       -1.0327909744
 O          0.0658587750        0.0000000000       -0.6805179485
 C         -0.0127587220        0.0000000000        0.7172669312
 H          0.9815517757        0.0000000000        1.1544420893
 H         -0.5350373510       -0.8849768837        1.0691425251
 H         -0.5350373510        0.8849768837        1.0691425251

 **********************************************************************************************************************************


 **********************************************************************************************************************************
 DATASETS  * FILE   NREC   LENGTH (MB)   RECORD NAMES
              1      18       28.69       500      610      700      900      950      970     1000      129      960     1100   
                                          VAR    BASINP    GEOM    SYMINP    ZMAT    AOBASIS   BASIS     P2S    ABASIS      S 
                                         1400     1410     1200     1210     1080     1600     1650     1700   
                                           T        V       H0       H01     AOSYM     SMH    MOLCAS    OPER   

              2       4        0.44       700     1000      520     2100   
                                         GEOM     BASIS   MCVARS     RHF  

 PROGRAMS   *        TOTAL      OPTG    HF-SCF       INT
 CPU TIMES  *         2.52      2.13      0.04      0.21
 REAL TIME  *         3.90 SEC
 DISK USED  *        29.31 MB (local),      339.81 MB (total)
 SF USED    *         0.01 MB
 GA USED    *         0.00 MB       (max)       0.00 MB       (current)
 **********************************************************************************************************************************


 PROGRAM * HESSIAN

 PROGRAM * MCKINLEY (Hessian of the energy)     Author: A. Bernhardsson, R. Lindh

 Orbitals from record         2100.2

 Number of closed-shell orbitals:  9 (  7  2 )
 Number of occupied orbitals:      9 (  7  2 )

 Number of electrons= 18     Singlet     Space symmetry=1      Wavefunction type: CLOSED          


 McKinley needed      0.38 seconds of CPU time

 Entering CPHF calculation

 CPHF needed 140 iterations for 18 perturbations.  Total CPU time:    0.12 sec


 HF-SCF hessian saved to record  5300.2

 PROGRAM * FREQUENCIES (Calculation of harmonic vibrational spectra for HF-SCF)


 Permanent Dipole Moment [debye]
   1-  3    0.000000    0.000000    0.000000

 Dipole Moment Norm    0.0000000 [debye]

 Dipole Moment Derivatives [debye/ang]
              1             2             3             4             5             6             7             8
    1     0.0000000     0.0000000     0.0000000     0.0000000     0.0000000     0.0000000     0.0000000     0.0000000
    2     0.0000000     0.0000000     0.0000000     0.0000000     0.0000000     0.0000000     0.0000000     0.0000000
    3     0.0000000     0.0000000     0.0000000     0.0000000     0.0000000     0.0000000     0.0000000     0.0000000
              9            10            11            12            13            14            15            16
    1     0.0000000     0.0000000     0.0000000     0.0000000     0.0000000     0.0000000     0.0000000     0.0000000
    2     0.0000000     0.0000000     0.0000000     0.0000000     0.0000000     0.0000000     0.0000000     0.0000000
    3     0.0000000     0.0000000     0.0000000     0.0000000     0.0000000     0.0000000     0.0000000     0.0000000
             17            18
    1     0.0000000     0.0000000
    2     0.0000000     0.0000000
    3     0.0000000     0.0000000

 Projecting out rotations and translations

 Force Constants (Second Derivatives of the Energy) in [a.u.]
                             H1X1        H1Y1        H1Z1        OX2         OY2     
           H1X1          0.5455349
           H1Y1          0.0000000   0.0027993
           H1Z1          0.2029689   0.0000000   0.1485088
           OX2          -0.5548486  -0.0000000  -0.1551946   0.6508477
           OY2          -0.0000000  -0.0028103   0.0000000  -0.0000000   0.0533504
           OZ2          -0.2153952  -0.0000000  -0.1223946   0.1621602   0.0000000
           CX3           0.0052671   0.0000000  -0.0499069  -0.1156984  -0.0000000
           CY3          -0.0000000   0.0002980   0.0000000  -0.0000000  -0.0726193
           CZ3           0.0082096  -0.0000000  -0.0216032  -0.0087971  -0.0000000
           H2X4          0.0026900  -0.0000000   0.0022322   0.0123811   0.0000000
           H2Y4         -0.0000000   0.0002830  -0.0000000   0.0000000   0.0039742
           H2Z4          0.0015746  -0.0000000  -0.0082082  -0.0431566   0.0000000
           H3X5          0.0006783   0.0010503  -0.0000498   0.0036591  -0.0005175
           H3Y5          0.0000033  -0.0002850   0.0009782   0.0028718   0.0090525
           H3Z5          0.0013210   0.0005919   0.0018486   0.0224940   0.0347727
           H4X6          0.0006783  -0.0010503  -0.0000498   0.0036591   0.0005175
           H4Y6         -0.0000033  -0.0002850  -0.0009782  -0.0028718   0.0090525
           H4Z6          0.0013210  -0.0005919   0.0018486   0.0224940  -0.0347727
                             OZ2         CX3         CY3         CZ3         H2X4    
           OZ2           0.5177901
           CX3           0.0452359   0.6715420
           CY3           0.0000000   0.0000000   0.6300550
           CZ3          -0.2989430   0.0249570   0.0000000   0.5697581
           H2X4         -0.0006971  -0.3065110   0.0000000  -0.0968719   0.3215559
           H2Y4         -0.0000000   0.0000000  -0.0632035   0.0000000   0.0000000
           H2Z4         -0.0230638  -0.0822646  -0.0000000  -0.0940764   0.1052233
           H3X5          0.0043481  -0.1272999  -0.1070613   0.0362512  -0.0150580
           H3Y5          0.0051520  -0.1081095  -0.2472651   0.0621382   0.0001439
           H3Z5         -0.0366944   0.0309893   0.0568712  -0.0775678  -0.0049432
           H4X6          0.0043481  -0.1272999   0.1070613   0.0362512  -0.0150580
           H4Y6         -0.0051520   0.1081095  -0.2472651  -0.0621382  -0.0001439
           H4Z6         -0.0366944   0.0309893  -0.0568712  -0.0775678  -0.0049432
                             H2Y4        H2Z4        H3X5        H3Y5        H3Z5    
           H2Y4          0.0549531
           H2Z4         -0.0000000   0.1126876
           H3X5         -0.0297427   0.0093116   0.1264228
           H3Y5          0.0019966  -0.0014926   0.1206808   0.2603770
           H3Z5         -0.0109488   0.0063303  -0.0440457  -0.0740314   0.0999525
           H4X6          0.0297427   0.0093116   0.0115977  -0.0155903  -0.0058155
           H4Y6          0.0019966   0.0014926   0.0155903  -0.0238759  -0.0072556
           H4Z6          0.0109488   0.0063303  -0.0058155   0.0072556   0.0061308
                             H4X6        H4Y6        H4Z6    
           H4X6          0.1264228
           H4Y6         -0.1206808   0.2603770
           H4Z6         -0.0440457   0.0740314   0.0999525


 Atomic Masses
   1-  6    1.007825   15.994910   12.000000    1.007825    1.007825    1.007825

 Mass weighted Second Derivative Matrix
                             H1X1        H1Y1        H1Z1        OX2         OY2     
           H1X1          0.5412992
           H1Y1          0.0000000   0.0027776
           H1Z1          0.2013930   0.0000000   0.1473557
           OX2          -0.1381946  -0.0000000  -0.0386539   0.0406909
           OY2          -0.0000000  -0.0007000   0.0000000  -0.0000000   0.0033355
           OZ2          -0.0536479  -0.0000000  -0.0304845   0.0101382   0.0000000
           CX3           0.0015146   0.0000000  -0.0143508  -0.0083511  -0.0000000
           CY3          -0.0000000   0.0000857   0.0000000  -0.0000000  -0.0052417
           CZ3           0.0023607  -0.0000000  -0.0062120  -0.0006350  -0.0000000
           H2X4          0.0026691  -0.0000000   0.0022148   0.0030837   0.0000000
           H2Y4         -0.0000000   0.0002808  -0.0000000   0.0000000   0.0009898
           H2Z4          0.0015624  -0.0000000  -0.0081445  -0.0107489   0.0000000
           H3X5          0.0006731   0.0010422  -0.0000494   0.0009114  -0.0001289
           H3Y5          0.0000033  -0.0002828   0.0009706   0.0007153   0.0022547
           H3Z5          0.0013108   0.0005873   0.0018342   0.0056025   0.0086607
           H4X6          0.0006731  -0.0010422  -0.0000494   0.0009114   0.0001289
           H4Y6         -0.0000033  -0.0002828  -0.0009706  -0.0007153   0.0022547
           H4Z6          0.0013108  -0.0005873   0.0018342   0.0056025  -0.0086607
                             OZ2         CX3         CY3         CZ3         H2X4    
           OZ2           0.0323722
           CX3           0.0032651   0.0559618
           CY3           0.0000000   0.0000000   0.0525046
           CZ3          -0.0215778   0.0020797   0.0000000   0.0474798
           H2X4         -0.0001736  -0.0881379   0.0000000  -0.0278557   0.3190592
           H2Y4         -0.0000000   0.0000000  -0.0181743   0.0000000   0.0000000
           H2Z4         -0.0057444  -0.0236554  -0.0000000  -0.0270519   0.1044063
           H3X5          0.0010830  -0.0366054  -0.0307857   0.0104241  -0.0149411
           H3Y5          0.0012832  -0.0310871  -0.0711016   0.0178680   0.0001428
           H3Z5         -0.0091394   0.0089110   0.0163535  -0.0223048  -0.0049048
           H4X6          0.0010830  -0.0366054   0.0307857   0.0104241  -0.0149411
           H4Y6         -0.0012832   0.0310871  -0.0711016  -0.0178680  -0.0001428
           H4Z6         -0.0091394   0.0089110  -0.0163535  -0.0223048  -0.0049048
                             H2Y4        H2Z4        H3X5        H3Y5        H3Z5    
           H2Y4          0.0545264
           H2Z4         -0.0000000   0.1118127
           H3X5         -0.0295118   0.0092393   0.1254412
           H3Y5          0.0019811  -0.0014810   0.1197438   0.2583553
           H3Z5         -0.0108638   0.0062812  -0.0437037  -0.0734566   0.0991765
           H4X6          0.0295118   0.0092393   0.0115077  -0.0154692  -0.0057703
           H4Y6          0.0019811   0.0014810   0.0154692  -0.0236906  -0.0071993
           H4Z6          0.0108638   0.0062812  -0.0057703   0.0071993   0.0060832
                             H4X6        H4Y6        H4Z6    
           H4X6          0.1254412
           H4Y6         -0.1197438   0.2583553
           H4Z6         -0.0437037   0.0734566   0.0991765


 Mass Weighted 2nd Derivative Matrix Eigenvalues
   1- 10    0.000000    0.000000    0.000000    0.000000    0.000000    0.000000    0.003715    0.049487    0.053246    0.062583
  11- 18    0.083728    0.099031    0.099785    0.099868    0.376003    0.388753    0.393952    0.664972

 Mass Weighted 2nd Derivative Matrix Eigenvectors
              1             2             3             4             5             6             7             8
    1     0.0004353    -0.0000843     0.0315223     0.0262313     0.0995602     0.2685555     0.0000000    -0.2335211
    2     0.1322148     0.0996753     0.1544384    -0.4507256     0.0151076     0.0201136     0.8630371     0.0000000
    3     0.1021398     0.0145494    -0.0551899     0.0097185     0.1163830    -0.1893785     0.0000000     0.4548268
    4    -0.0050210    -0.0023277     0.2152649     0.1212396     0.4419833     0.7765470     0.0000000    -0.0027180
    5     0.5232689     0.6302634     0.3805585    -0.0533773    -0.2609457     0.0566335    -0.2471507     0.0000000
    6     0.4236008     0.0628850    -0.4415263    -0.0026540     0.3515529    -0.0294887     0.0000000    -0.4116889
    7    -0.0275653    -0.0088620     0.4946926     0.1625426     0.5387069    -0.3355021     0.0000000     0.2062043
    8    -0.4220463     0.6698515    -0.1896557    -0.0110703     0.1478761    -0.0305845     0.0135552     0.0000000
    9     0.3656016     0.0540836    -0.3650972     0.0009369     0.3132694    -0.0822430     0.0000000     0.2847750
   10    -0.0100928    -0.0031887     0.1713016     0.0523196     0.1702472    -0.1886046     0.0000000    -0.1442203
   11    -0.1294872     0.2619740    -0.1260424     0.4974472    -0.0467387    -0.0161747     0.2797583     0.0000000
   12     0.1107382     0.0170848    -0.1693494    -0.0115882     0.0586521     0.1839895     0.0000000     0.5552674
   13     0.0529914     0.0461065     0.1449941     0.4833842     0.0602375    -0.1708565     0.2122878    -0.1614824
   14    -0.2217515     0.1752456    -0.0810043    -0.2459779     0.1310303    -0.0146276    -0.1024844     0.0318623
   15    -0.0536353     0.0404389    -0.1688807     0.0372550     0.1702364    -0.1476140     0.0474166    -0.1763285
   16    -0.0723558    -0.0522418     0.1867066    -0.3807797     0.2747434    -0.1706952    -0.2122878    -0.1614824
   17    -0.2217515     0.1752456    -0.0810043    -0.2459779     0.1310303    -0.0146276    -0.1024844    -0.0318623
   18     0.2605119    -0.0105744     0.0240231    -0.0242530     0.0450941    -0.1183805    -0.0474166    -0.1763285
              9            10            11            12            13            14            15            16
    1     0.0969792     0.0000000    -0.2207348    -0.0078274     0.0000000     0.0226762     0.0028957     0.0000000
    2     0.0000000     0.0041931     0.0000000     0.0000000    -0.0097858     0.0000000     0.0000000     0.0002856
    3    -0.3709849     0.0000000     0.6685762     0.0103040     0.0000000    -0.0861502     0.0045063     0.0000000
    4     0.0286959     0.0000000     0.2927679     0.0100985     0.0000000    -0.0648138    -0.0013631     0.0000000
    5     0.0000000     0.2182002     0.0000000     0.0000000    -0.0358894     0.0000000     0.0000000     0.0009786
    6    -0.5451351     0.0000000    -0.1359625    -0.0398920     0.0000000     0.0290498     0.0081991     0.0000000
    7    -0.1288356     0.0000000    -0.3730262    -0.0368750     0.0000000    -0.1674516    -0.0601122     0.0000000
    8     0.0000000    -0.4248317     0.0000000     0.0000000    -0.1927384     0.0000000     0.0000000    -0.3105921
    9     0.6116126     0.0000000    -0.0089159    -0.3784367     0.0000000     0.0518985     0.1471518     0.0000000
   10     0.0770556     0.0000000     0.0510745    -0.2525430     0.0000000    -0.1335559    -0.3915599     0.0000000
   11     0.0000000     0.2761960     0.0000000     0.0000000     0.7026937     0.0000000     0.0000000    -0.0221074
   12    -0.0911254     0.0000000    -0.3940026     0.4942565     0.0000000     0.2701612    -0.1586484     0.0000000
   13     0.0781049    -0.0985660     0.1452520     0.1736910    -0.3588073     0.4734492     0.3007597     0.3339115
   14    -0.0211809     0.1581396    -0.0907130     0.1099163     0.0575684    -0.3889203     0.5199158     0.5448304
   15     0.2616883     0.5595347     0.1489202     0.4801027    -0.3190424    -0.2394110    -0.1931436    -0.2078084
   16     0.0781049     0.0985660     0.1452520     0.1736910     0.3588073     0.4734492     0.3007597    -0.3339115
   17     0.0211809     0.1581396     0.0907130    -0.1099163     0.0575684     0.3889203    -0.5199158     0.5448304
   18     0.2616883    -0.5595347     0.1489202     0.4801027     0.3190424    -0.2394110    -0.1931436     0.2078084
             17            18
    1    -0.0119385     0.8960449
    2     0.0000000     0.0000000
    3     0.0046899     0.3711395
    4     0.0074139    -0.2228305
    5     0.0000000     0.0000000
    6     0.0029845    -0.0976680
    7    -0.3064988    -0.0056338
    8     0.0000000     0.0000000
    9    -0.0489663     0.0025631
   10     0.7992963     0.0098026
   11     0.0000000     0.0000000
   12     0.3271238     0.0044482
   13     0.1203601     0.0006532
   14     0.2380210     0.0005433
   15    -0.0873693     0.0023292
   16     0.1203601     0.0006532
   17    -0.2380210    -0.0005433
   18    -0.0873693     0.0023292

   Low Vibration      Wavenumber
        Nr             [1/cm] 
        1                0.00
        2                0.00
        3                0.00
        4                0.00
        5                0.00
        6                0.00

     Vibration        Wavenumber
        Nr             [1/cm] 
        1              313.31
        2             1143.53
        3             1186.17
        4             1285.97
        5             1487.44
        6             1617.67
        7             1623.82
        8             1624.49
        9             3152.10
       10             3205.10
       11             3226.46
       12             4191.85

 FREQUENCIES * CALCULATION OF NORMAL MODES FOR HF-SCF


 Atomic Coordinates

  Nr  Atom  Charge       X              Y              Z

   1   H1    1.00   -1.520827840    0.000000000   -1.951692086
   2   O     8.00    0.124455048    0.000000000   -1.285992546
   3   C     6.00   -0.024110490    0.000000000    1.355438058
   4   H2    1.00    1.854864033    0.000000000    2.181579375
   5   H3    1.00   -1.011074060   -1.672363937    2.020386561
   6   H4    1.00   -1.011074060    1.672363937    2.020386561

 Gradient norm at reference geometry: 0.12267D-01

 ?WARNING: GRADIENT NORM NOT ZERO!

 Normal Modes

                              1 A``       2 A`        3 A`        4 A``       5 A` 
 Wavenumbers [cm-1]          313.31     1143.53     1186.17     1285.97     1487.44
 Intensities [km/mol]          0.00        0.00        0.00        0.00        0.00
 Intensities [relative]        0.00        0.00        0.00        0.00        0.00
           H1X1            -0.00000    -0.23261     0.09660     0.00000    -0.21988
           H1Y1             0.85968    -0.00000    -0.00000     0.00418    -0.00000
           H1Z1            -0.00000     0.45306    -0.36954    -0.00000     0.66598
           OX2             -0.00000    -0.00068     0.00718    -0.00000     0.07320
           OY2             -0.06180    -0.00000    -0.00000     0.05456    -0.00000
           OZ2              0.00000    -0.10294    -0.13631    -0.00000    -0.03400
           CX3             -0.00000     0.05953    -0.03719    -0.00000    -0.10768
           CY3              0.00391     0.00000     0.00000    -0.12264    -0.00000
           CZ3              0.00000     0.08221     0.17656     0.00000    -0.00257
           H2X4            -0.00000    -0.14366     0.07676    -0.00000     0.05088
           H2Y4             0.27867    -0.00000    -0.00000     0.27512     0.00000
           H2Z4             0.00000     0.55311    -0.09077     0.00000    -0.39247
           H3X5             0.21146    -0.16085     0.07780    -0.09818     0.14469
           H3Y5            -0.10209     0.03174    -0.02110     0.15752    -0.09036
           H3Z5             0.04723    -0.17564     0.26067     0.55736     0.14834
           H4X6            -0.21146    -0.16085     0.07780     0.09818     0.14469
           H4Y6            -0.10209    -0.03174     0.02110     0.15752     0.09036
           H4Z6            -0.04723    -0.17564     0.26067    -0.55736     0.14834

                              6 A`        7 A``       8 A`        9 A`       10 A``
 Wavenumbers [cm-1]         1617.67     1623.82     1624.49     3152.10     3205.10
 Intensities [km/mol]          0.00        0.00        0.00        0.00        0.00
 Intensities [relative]        0.00        0.00        0.00        0.00        0.00
           H1X1            -0.00780     0.00000     0.02259     0.00288     0.00000
           H1Y1            -0.00000    -0.00975     0.00000     0.00000     0.00028
           H1Z1             0.01026    -0.00000    -0.08582     0.00449    -0.00000
           OX2              0.00253    -0.00000    -0.01621    -0.00034     0.00000
           OY2             -0.00000    -0.00897     0.00000    -0.00000     0.00024
           OZ2             -0.00997     0.00000     0.00726     0.00205    -0.00000
           CX3             -0.01064    -0.00000    -0.04834    -0.01735     0.00000
           CY3             -0.00000    -0.05564     0.00000     0.00000    -0.08966
           CZ3             -0.10925     0.00000     0.01498     0.04248     0.00000
           H2X4            -0.25156    -0.00000    -0.13304    -0.39004    -0.00000
           H2Y4             0.00000     0.69996    -0.00000     0.00000    -0.02202
           H2Z4             0.49233     0.00000     0.26911    -0.15803    -0.00000
           H3X5             0.17302    -0.35741     0.47161     0.29959     0.33261
           H3Y5             0.10949     0.05734    -0.38741     0.51789     0.54271
           H3Z5             0.47824    -0.31780    -0.23848    -0.19239    -0.20700
           H4X6             0.17302     0.35741     0.47161     0.29959    -0.33261
           H4Y6            -0.10949     0.05734     0.38741    -0.51789     0.54271
           H4Z6             0.47824     0.31780    -0.23848    -0.19239     0.20700

                             11 A`       12 A` 
 Wavenumbers [cm-1]         3226.46     4191.85
 Intensities [km/mol]          0.00        0.00
 Intensities [relative]        0.00        0.00
           H1X1            -0.01189     0.89256
           H1Y1             0.00000    -0.00000
           H1Z1             0.00467     0.36970
           OX2              0.00185    -0.05572
           OY2              0.00000     0.00000
           OZ2              0.00075    -0.02442
           CX3             -0.08848    -0.00163
           CY3             -0.00000    -0.00000
           CZ3             -0.01414     0.00074
           H2X4             0.79619     0.00976
           H2Y4            -0.00000    -0.00000
           H2Z4             0.32585     0.00443
           H3X5             0.11989     0.00065
           H3Y5             0.23710     0.00054
           H3Z5            -0.08703     0.00232
           H4X6             0.11989     0.00065
           H4Y6            -0.23710    -0.00054
           H4Z6            -0.08703     0.00232


 Normal Modes of low/zero frequencies

                                  1           2           3           4           5
 Wavenumbers [cm-1]            0.00        0.00        0.00        0.00        0.00
 Intensities [km/mol]          0.00        0.00        0.00        0.00        0.00
 Intensities [relative]        0.00        0.00        0.00        0.00        0.00
           H1X1             0.00043    -0.00008     0.03140     0.02613     0.09917
           H1Y1             0.13170     0.09929     0.15384    -0.44897     0.01505
           H1Z1             0.10174     0.01449    -0.05498     0.00968     0.11593
           OX2             -0.00126    -0.00058     0.05382     0.03031     0.11051
           OY2              0.13084     0.15759     0.09515    -0.01335    -0.06525
           OZ2              0.10592     0.01572    -0.11040    -0.00066     0.08790
           CX3             -0.00796    -0.00256     0.14281     0.04692     0.15551
           CY3             -0.12183     0.19337    -0.05475    -0.00320     0.04269
           CZ3              0.10554     0.01561    -0.10539     0.00027     0.09043
           H2X4            -0.01005    -0.00318     0.17064     0.05212     0.16958
           H2Y4            -0.12898     0.26096    -0.12555     0.49551    -0.04656
           H2Z4             0.11031     0.01702    -0.16869    -0.01154     0.05842
           H3X5             0.05279     0.04593     0.14443     0.48150     0.06000
           H3Y5            -0.22089     0.17456    -0.08069    -0.24502     0.13052
           H3Z5            -0.05343     0.04028    -0.16822     0.03711     0.16957
           H4X6            -0.07207    -0.05204     0.18598    -0.37930     0.27367
           H4Y6            -0.22089     0.17456    -0.08069    -0.24502     0.13052
           H4Z6             0.25950    -0.01053     0.02393    -0.02416     0.04492

                                  6
 Wavenumbers [cm-1]            0.00
 Intensities [km/mol]          0.00
 Intensities [relative]        0.00
           H1X1             0.26751
           H1Y1             0.02004
           H1Z1            -0.18864
           OX2              0.19417
           OY2              0.01416
           OZ2             -0.00737
           CX3             -0.09685
           CY3             -0.00883
           CZ3             -0.02374
           H2X4            -0.18787
           H2Y4            -0.01611
           H2Z4             0.18327
           H3X5            -0.17019
           H3Y5            -0.01457
           H3Z5            -0.14704
           H4X6            -0.17003
           H4Y6            -0.01457
           H4Z6            -0.11792


 Frequencies dumped to record   5400.2

 Zero point energy:  0.05480794 [H]    12028.95 [1/CM]      143.90 [KJ/MOL]
 Frequency information read from record  5400.2


 **********************************************************************************************************************************
 DATASETS  * FILE   NREC   LENGTH (MB)   RECORD NAMES
              1      18       28.69       500      610      700      900      950      970     1000      129      960     1100   
                                          VAR    BASINP    GEOM    SYMINP    ZMAT    AOBASIS   BASIS     P2S    ABASIS      S 
                                         1400     1410     1200     1210     1080     1600     1650     1700   
                                           T        V       H0       H01     AOSYM     SMH    MOLCAS    OPER   

              2       7        0.47       700     1000      520     2100     5300     5450     5400   
                                         GEOM     BASIS   MCVARS     RHF     HESS     NMOD     FREQ   

              4       5        0.47      4100     4000     4200     4300     4400   

 PROGRAMS   *        TOTAL      FREQ      OPTG    HF-SCF       INT
 CPU TIMES  *         3.03      0.51      2.13      0.04      0.21
 REAL TIME  *         4.47 SEC
 DISK USED  *        29.31 MB (local),      339.81 MB (total)
 SF USED    *         0.47 MB
 GA USED    *         0.00 MB       (max)       0.00 MB       (current)
 **********************************************************************************************************************************

 Dump information in style MOLDEN to ch3oh.molden                                                                    

 Molecular orbitals read from record     2100.2  Type=RHF/CANONICAL  
 Occupation numbers read from record     2100.2  Type=RHF/RHF  
 Orbital energies read from record       2100.2  Type=RHF/CANONICAL  
 Redundancy group numbers read from rec  2100.2  Type=RHF/RHF  

 DUMP ORBITAL  1.1 AS ORBITAL    1  occ=    2.0000  eig=  -20.5404  GROUP=   2
 DUMP ORBITAL  2.1 AS ORBITAL    2  occ=    2.0000  eig=  -11.2660  GROUP=   2
 DUMP ORBITAL  3.1 AS ORBITAL    3  occ=    2.0000  eig=   -1.3619  GROUP=   2
 DUMP ORBITAL  4.1 AS ORBITAL    4  occ=    2.0000  eig=   -0.9264  GROUP=   2
 DUMP ORBITAL  5.1 AS ORBITAL    5  occ=    2.0000  eig=   -0.6925  GROUP=   2
 DUMP ORBITAL  1.2 AS ORBITAL    6  occ=    2.0000  eig=   -0.6226  GROUP=   2
 DUMP ORBITAL  6.1 AS ORBITAL    7  occ=    2.0000  eig=   -0.5984  GROUP=   2
 DUMP ORBITAL  7.1 AS ORBITAL    8  occ=    2.0000  eig=   -0.4964  GROUP=   2
 DUMP ORBITAL  2.2 AS ORBITAL    9  occ=    2.0000  eig=   -0.4443  GROUP=   2

 Total charge:      18.000000
 Frequency information read from record  5400.2

 **********************************************************************************************************************************

 HF/6-311G(D,P)//HF/6-311G(D,P) energy=   -115.075285462630

    OPTG(HF-SCF)          HF-SCF
   -115.07528546   -115.07357104
 **********************************************************************************************************************************
 Molpro calculation terminated
