
 Working directory              : /scratch/koe/tmpdir_768884/molpro.vrGv08rA5t/
 Global scratch directory       : /scratch/koe/tmpdir_768884/molpro.vrGv08rA5t/
 Wavefunction directory         : /home/koe/final_calc_paper/hco3ch3/
 Main file repository           : /home/koe/final_calc_paper/hco3ch3/

 id        : liedlgroup

 Nodes     nprocs
 rune03      10
 GA implementation: MPI file
 GA implementation (serial work in mppx): MPI file

 Using customized tuning parameters: mindgm=1; mindgv=20; mindgc=4; mindgr=1; noblas=0; minvec=7
 default implementation of scratch files=sf  


 Variables initialized (1015), CPU time= 0.00 sec
 ***,carbonic acid metyhlester
 memory, 1000, m
 gthresh,optgrad=1.d-7,twoint=1.d-14,prefac=1.d-16
 orient,mass
 geometry={
 O1
 C1,O1,B1
 O2,C1,B2,O1,A1
 H1,O2,B3,C1,A2,O1,0.0
 O3,C1,B4,O1,A3,H1,180.0
 C2,O3,B5,C1,A4,O1,0.0
 H2,C2,B6,O3,A5,C1,180.0
 H3,C2,B7,O3,A6,C1,D1
 H4,C2,B7,O3,A6,C1,-D1
 }
 
 B1=                  1.20826386 ANG
 B2=                  1.34632938 ANG
 A1=                125.37105052 DEGREE
 B3=                  0.96620055 ANG
 A2=                104.93520844 DEGREE
 B4=                  1.33375801 ANG
 A3=                126.65441654 DEGREE
 B5=                  1.43708653 ANG
 A4=                113.41206325 DEGREE
 B6=                  1.08375252 ANG
 A5=                105.23462880 DEGREE
 B7=                  1.08668081 ANG
 A6=                110.40633463 DEGREE
 D1=                 60.53271261 DEGREE
 
 
 
 
 
 
 mass,iso
 basis=6-311g(d,p)
 
 {hf
 start,atden}
 
 
 optg
 {frequencies, symm=auto, print=0,analytical}
 put,molden, hco3ch3.molden
 Commands initialized (818), CPU time= 0.00 sec, 672 directives.
 Default parameters read. Elapsed time= 0.15 sec

 Checking input...
 Passed
1


                                         ***  PROGRAM SYSTEM MOLPRO  ***
                                       Copyright, TTI GmbH Stuttgart, 2015
                                    Version 2022.1 linked Jan 25 2022 12:44:58


 **********************************************************************************************************************************
 LABEL *   carbonic acid metyhlester                                                     
  64 bit mpp version                                                                     DATE: 25-Aug-23          TIME: 15:47:40  
 **********************************************************************************************************************************

 SHA1:             f3d4322b9bdbeed63a35be676bd653804e8a9433
 **********************************************************************************************************************************

 Memory per process:      1000 MW
 Total memory per node:  10000 MW

 GA preallocation disabled
 GA check disabled

 Variable memory set to 1000.0 MW


 THRESHOLDS:

 ZERO    =  1.00D-12  ONEINT  =  1.00D-12  TWOINT  =  1.00D-14  PREFAC  =  1.00D-16  XXXXXX  =  1.00D-09  EORDER  =  1.00D-04
 ENERGY  =  0.00D+00  ETEST   =  0.00D+00  EDENS   =  0.00D+00  THRDEDEF=  1.00D-06  GRADIENT=  1.00D-05  STEP    =  1.00D-03
 ORBITAL =  1.00D-05  CIVEC   =  1.00D-05  COEFF   =  1.00D-04  PRINTCI =  5.00D-02  PUNCHCI =  9.90D+01  OPTGRAD =  1.00D-07
 OPTENERG=  1.00D-06  OPTSTEP =  3.00D-04  THRGRAD =  1.00D-10  COMPRESS=  1.00D-11  VARMIN  =  1.00D-07  VARMAX  =  1.00D-03
 THRDOUB =  0.00D+00  THRDIV  =  1.00D-05  THRRED  =  1.00D-07  THRPSP  =  1.00D+00  THRDC   =  1.00D-10  THRCS   =  1.00D-10
 THRNRM  =  1.00D-08  THREQ   =  0.00D+00  THRDE   =  1.00D+00  THRREF  =  1.00D-05  SPARFAC =  1.00D+00  THRDLP  =  1.00D-07
 THRDIA  =  1.00D-10  THRDLS  =  1.00D-07  THRGPS  =  0.00D+00  THRKEX  =  0.00D+00  THRDIS  =  2.00D-01  THRVAR  =  1.00D-10
 THRLOC  =  1.00D-06  THRGAP  =  1.00D-06  THRLOCT = -1.00D+00  THRGAPT = -1.00D+00  THRORB  =  1.00D-06  THRMLTP =  0.00D+00
 THRCPQCI=  1.00D-10  KEXTA   =  0.00D+00  THRCOARS=  0.00D+00  SYMTOL  =  1.00D-06  GRADTOL =  1.00D-06  THROVL  =  1.00D-08
 THRORTH =  1.00D-08  THRDLOVL= -1.00D+00  GRID    =  1.00D-06  GRIDMAX =  1.00D-03  DTMAX   =  0.00D+00  THROCCDE=  1.00D-01
 THROCCDE=  1.00D-01  THRPRINT=  2.50D-01

 ZCENTRE=MASS

 SETTING B1             =         1.20826386  ANG                             
 SETTING B2             =         1.34632938  ANG                             
 SETTING A1             =       125.37105052  DEGREE                          
 SETTING B3             =         0.96620055  ANG                             
 SETTING A2             =       104.93520844  DEGREE                          
 SETTING B4             =         1.33375801  ANG                             
 SETTING A3             =       126.65441654  DEGREE                          
 SETTING B5             =         1.43708653  ANG                             
 SETTING A4             =       113.41206325  DEGREE                          
 SETTING B6             =         1.08375252  ANG                             
 SETTING A5             =       105.23462880  DEGREE                          
 SETTING B7             =         1.08668081  ANG                             
 SETTING A6             =       110.40633463  DEGREE                          
 SETTING D1             =        60.53271261  DEGREE                          


 Using masses of most abundant isotopes

 **********************************************************************************************************************************
 SETTING BASIS          =    6-311G(D,P)


 Recomputing integrals since basis changed


 Using spherical harmonics

 Library entry O      S 6-311G               selected for orbital group  1
 Library entry O      P 6-311G               selected for orbital group  1
 Library entry O      D 6-311G*              selected for orbital group  1
 Library entry C      S 6-311G               selected for orbital group  2
 Library entry C      P 6-311G               selected for orbital group  2
 Library entry C      D 6-311G*              selected for orbital group  2
 Library entry H      S 6-311G               selected for orbital group  4
 Library entry H      P 6-311G**             selected for orbital group  4


 PROGRAM * SEWARD (Integral evaluation for generally contracted gaussian basis sets)     Author: Roland Lindh, 1990

 Geometry written to block  1 of record 700

 Orientation using atomic masses  
 Molecule type: Asymmetric top
 Symmetry elements: Y
 Rotational constants:       4.4570786      3.2435983     11.0853145 GHz

 Point group  Cs  



 ATOMIC COORDINATES

 NR  ATOM    CHARGE       X              Y              Z

   1  O1      8.00   -2.464364476    0.000000000    0.789834067
   2  C1      6.00   -0.181392906    0.000000000    0.827832820
   3  O2      8.00    1.256633138    0.000000000    2.926642768
   4  H1      1.00    0.067269896    0.000000000    4.311980072
   5  O3      8.00    1.356718003    0.000000000   -1.168869285
   6  C2      6.00    0.040951674    0.000000000   -3.544534505
   7  H2      1.00    1.508817919    0.000000000   -4.972699078
   8  H3      1.00   -1.134201984    1.675676761   -3.712174303
   9  H4      1.00   -1.134201984   -1.675676761   -3.712174303

 Bond lengths in Bohr (Angstrom)

 1-2  2.283287782  2-3  2.544193802  2-5  2.520437355  3-4  1.825854421  5-6  2.715699959
     ( 1.208263860)     ( 1.346329380)     ( 1.333758010)     ( 0.966200550)     ( 1.437086530)

 6-7  2.047995450  6-8  2.053529116  6-9  2.053529116
     ( 1.083752520)     ( 1.086680810)     ( 1.086680810)

 Bond angles

  1-2-3  125.37105052   1-2-5  126.65441654   2-3-4  104.93520844   2-5-6  113.41206325

  3-2-5  107.97453294   5-6-7  105.23462880   5-6-8  110.40633463   5-6-9  110.40633463

  7-6-8  110.68501313   7-6-9  110.68501313   8-6-9  109.37243054

 NUCLEAR CHARGE:                   40
 NUMBER OF PRIMITIVE AOS:         192
 NUMBER OF SYMMETRY AOS:          187
 NUMBER OF CONTRACTIONS:          114   (   81A'  +   33A"  )
 NUMBER OF INNER CORE ORBITALS:     0   (    0A'  +    0A"  )
 NUMBER OF OUTER CORE ORBITALS:     5   (    5A'  +    0A"  )
 NUMBER OF VALENCE ORBITALS:       24   (   18A'  +    6A"  )


 NUCLEAR REPULSION ENERGY  184.45707529


 Eigenvalues of metric

         1 0.797E-02 0.813E-02 0.961E-02 0.112E-01 0.202E-01 0.309E-01 0.318E-01 0.368E-01
         2 0.226E-01 0.418E-01 0.928E-01 0.108E+00 0.187E+00 0.205E+00 0.211E+00 0.325E+00


 Contracted 2-electron integrals neglected if value below      1.0D-14
 AO integral compression algorithm  1   Integral accuracy      1.0D-14

     66.585 MB (compressed) written to integral file ( 63.8%)

     Node minimum: 6.029 MB, node maximum: 7.078 MB


 NUMBER OF SORTED TWO-ELECTRON INTEGRALS:    1126668.     BUFFER LENGTH:  32768
 NUMBER OF SEGMENTS:   1  SEGMENT LENGTH:    1126668      RECORD LENGTH: 524288

 Memory used in sort:       1.68 MW

 SORT1 READ    12905008. AND WROTE     1007262. INTEGRALS IN      3 RECORDS. CPU TIME:     0.21 SEC, REAL TIME:     0.24 SEC
 SORT2 READ     9971288. AND WROTE    11263065. INTEGRALS IN    260 RECORDS. CPU TIME:     0.04 SEC, REAL TIME:     0.04 SEC

 Node minimum:     1123564.  Node maximum:     1137021. integrals

 OPERATOR DM      FOR CENTER  0  COORDINATES:    0.000000    0.000000    0.000000


 **********************************************************************************************************************************
 DATASETS  * FILE   NREC   LENGTH (MB)   RECORD NAMES
              1      18       28.95       500      610      700      900      950      970     1000      129      960     1100   
                                          VAR    BASINP    GEOM    SYMINP    ZMAT    AOBASIS   BASIS     P2S    ABASIS      S 
                                         1400     1410     1200     1210     1080     1600     1650     1700   
                                           T        V       H0       H01     AOSYM     SMH    MOLCAS    OPER   

 PROGRAMS   *        TOTAL       INT
 CPU TIMES  *         0.98      0.83
 REAL TIME  *         1.65 SEC
 DISK USED  *        29.33 MB (local),      469.84 MB (total)
 GA USED    *         0.00 MB       (max)       0.00 MB       (current)
 **********************************************************************************************************************************


 Program * Restricted Hartree-Fock

 Orbital guess generated from atomic densities. Full valence occupancy:   23   6

 Initial occupancy:  16   4

 NELEC=   40   SYM=1   MS2= 0   THRE=1.0D-08   THRD=1.0D-06   THRG=1.0D-06  HFMA2=F  DIIS_START=2   DIIS_MAX=10   DIIS_INCORE=F

 Level shifts:    0.00 (CLOSED)    0.00 (OPEN)    0.30 (GAP_MIN)

 ITER           ETOT              DE          GRAD        DDIFF     DIIS  NEXP   TIME(IT)  TIME(TOT)  DIAG
   1     -302.63592211    -302.63592211     0.00D+00     0.61D-01     0     0       0.01      0.04    start
   2     -302.71367154      -0.07774944     0.11D-01     0.90D-02     1     0       0.01      0.05    diag
   3     -302.75565569      -0.04198415     0.74D-02     0.35D-02     2     0       0.01      0.06    diag
   4     -302.75710405      -0.00144835     0.10D-02     0.79D-03     3     0       0.01      0.07    diag
   5     -302.75735668      -0.00025263     0.45D-03     0.33D-03     4     0       0.01      0.08    diag
   6     -302.75739148      -0.00003480     0.12D-03     0.12D-03     5     0       0.01      0.09    diag
   7     -302.75739677      -0.00000529     0.41D-04     0.55D-04     6     0       0.01      0.10    diag
   8     -302.75739732      -0.00000055     0.13D-04     0.18D-04     7     0       0.01      0.11    fixocc
   9     -302.75739739      -0.00000007     0.50D-05     0.65D-05     8     0       0.02      0.13    diag
  10     -302.75739740      -0.00000001     0.17D-05     0.20D-05     9     0       0.01      0.14    diag/orth
  11     -302.75739740      -0.00000000     0.65D-06     0.62D-06     9     0       0.01      0.15    diag
  12     -302.75739740      -0.00000000     0.15D-06     0.14D-06     0     0       0.01      0.16    diag

 Final occupancy:  16   4

 !RHF STATE 1.1 Energy               -302.757397395889
  RHF One-electron energy            -781.079842816310
  RHF Two-electron energy             293.865370127151
  RHF Kinetic energy                  302.468171953126
  RHF Nuclear energy                  184.457075293270
  RHF Virial quotient                  -1.000956217776

 !RHF STATE 1.1 Dipole moment           0.06092577     0.00000000    -0.25718484
 Dipole moment /Debye                   0.15485786     0.00000000    -0.65369865

 Orbital energies:

           1.1          2.1          3.1          4.1          5.1          6.1          7.1          8.1          9.1         10.1
    -20.617676   -20.614267   -20.549114   -11.441334   -11.294404    -1.514606    -1.407420    -1.371564    -0.991592    -0.834912

          11.1         12.1         13.1         14.1         15.1         16.1         17.1         18.1
     -0.751981    -0.718053    -0.631236    -0.614243    -0.545683    -0.478412     0.154838     0.164164

           1.2          2.2          3.2          4.2          5.2          6.2
     -0.701577    -0.610494    -0.508040    -0.477930     0.206644     0.236962


 HOMO      4.2    -0.477930 =     -13.0051eV
 LUMO     17.1     0.154838 =       4.2134eV
 LUMO-HOMO         0.632768 =      17.2185eV

 Orbitals saved in record  2100.2


 **********************************************************************************************************************************
 DATASETS  * FILE   NREC   LENGTH (MB)   RECORD NAMES
              1      18       28.96       500      610      700      900      950      970     1000      129      960     1100   
                                          VAR    BASINP    GEOM    SYMINP    ZMAT    AOBASIS   BASIS     P2S    ABASIS      S 
                                         1400     1410     1200     1210     1080     1600     1650     1700   
                                           T        V       H0       H01     AOSYM     SMH    MOLCAS    OPER   

              2       4        0.58       700     1000      520     2100   
                                         GEOM     BASIS   MCVARS     RHF  

 PROGRAMS   *        TOTAL    HF-SCF       INT
 CPU TIMES  *         1.14      0.16      0.83
 REAL TIME  *         1.84 SEC
 DISK USED  *        30.12 MB (local),      477.76 MB (total)
 GA USED    *         0.00 MB       (max)       0.00 MB       (current)
 **********************************************************************************************************************************


 PROGRAM * OPT (Geometry optimization)     Authors: F. Eckert and H.-J. Werner


 BFGS update of hessian

 *** Long output written to logfile /home/koe/final_calc_paper/hco3ch3/hco3ch3.log ***


 Geometry optimization using default procedure for command HF-SCF

 Geometry written to block  1 of record 700

 Making model hessian for Z-matrix coordinates

 Entering Rational Function Geometry Optimization

 ITER.   ENERGY(OLD)    ENERGY(NEW)      DE          GRADMAX     GRADNORM    GRADRMS     STEPMAX     STEPLEN     STEPRMS   CPU-time
   1  -302.75739740  -302.76156275    -0.00416535  0.05543682  0.07848402  0.02097574  0.04841610  0.09494226  0.00678159      1.55
   2  -302.76156275  -302.76188446    -0.00032171  0.01010656  0.01770009  0.00473055  0.01575818  0.03523812  0.00251701      3.24
   3  -302.76188446  -302.76191291    -0.00002846  0.00468021  0.00596733  0.00159484  0.00544652  0.01033913  0.00073851      4.89
   4  -302.76191291  -302.76191527    -0.00000236  0.00119096  0.00168337  0.00044990  0.00171699  0.00299229  0.00021373      6.43
   5  -302.76191527  -302.76191540    -0.00000013  0.00016526  0.00032923  0.00008799  0.00035508  0.00070961  0.00005069      8.00
   6  -302.76191540  -302.76191543    -0.00000003  0.00009494  0.00015071  0.00004028  0.00017309  0.00034563  0.00002469      9.52
   7  -302.76191543  -302.76191543    -0.00000000  0.00002669  0.00004871  0.00001302  0.00005152  0.00007688  0.00000549     11.06
   8  -302.76191543  -302.76191543    -0.00000000  0.00000665  0.00001379  0.00000368  0.00001025  0.00002246  0.00000160     12.59
   9  -302.76191543  -302.76191543    -0.00000000  0.00000151  0.00000253  0.00000068  0.00000295  0.00000443  0.00000032     14.15
  10  -302.76191543  -302.76191543     0.00000000  0.00000051  0.00000085  0.00000023  0.00000096  0.00000191  0.00000014     15.58
  11  -302.76191543  -302.76191543     0.00000000  0.00000058  0.00000070  0.00000019  0.00000081  0.00000108  0.00000008     17.02
  12  -302.76191543  -302.76191543    -0.00000000  0.00000026  0.00000030  0.00000008  0.00000040  0.00000067  0.00000005     18.45
  13  -302.76191543  -302.76191543    -0.00000000  0.00000019  0.00000027  0.00000007  0.00000098  0.00000144  0.00000010     19.88
  14  -302.76191543  -302.76191543     0.00000000  0.00000030  0.00000034  0.00000009  0.00000057  0.00000091  0.00000007     21.32
  15  -302.76191543  -302.76191543    -0.00000000  0.00000018  0.00000024  0.00000006  0.00000023  0.00000033  0.00000002     22.73
  16  -302.76191543  -302.76191543    -0.00000000  0.00000004  0.00000005  0.00000001  0.00000012  0.00000017  0.00000001     24.13

 END OF GEOMETRY OPTIMIZATION.

 Optimized variables
 B1=                  1.18290218 ANG
 B2=                  1.31720566 ANG
 A1=                124.47711788 DEGREE
 B3=                  0.94395072 ANG
 A2=                107.78526931 DEGREE
 B4=                  1.30550618 ANG
 A3=                126.08094091 DEGREE
 B5=                  1.41834260 ANG
 A4=                116.62901312 DEGREE
 B6=                  1.07846077 ANG
 A5=                105.55689969 DEGREE
 B7=                  1.08117830 ANG
 A6=                110.43702449 DEGREE
 D1=                 60.61312747 DEGREE

 **********************************************************************************************************************************

 Geometry written to block  1 of record 700

 Recomputing wavefunction for reoriented structure

 Current geometry (xyz format, in Angstrom)

    9
 HF-SCF000/6-311G(D,P)  ENERGY=-302.76191543
 O         -1.2700421646        0.0000000000        0.4465214579
 C         -0.0871582789        0.0000000000        0.4399424789
 O          0.6645092529        0.0000000000        1.5216201910
 H          0.0909284349        0.0000000000        2.2713188029
 O          0.6758102593        0.0000000000       -0.6194089295
 C          0.0185066637        0.0000000000       -1.8762492951
 H          0.8051136969        0.0000000000       -2.6140345031
 H         -0.5969856514        0.8827625942       -1.9803930328
 H         -0.5969856514       -0.8827625942       -1.9803930328

 **********************************************************************************************************************************


 **********************************************************************************************************************************
 DATASETS  * FILE   NREC   LENGTH (MB)   RECORD NAMES
              1      18       28.96       500      610      700      900      950      970     1000      129      960     1100   
                                          VAR    BASINP    GEOM    SYMINP    ZMAT    AOBASIS   BASIS     P2S    ABASIS      S 
                                         1400     1410     1200     1210     1080     1600     1650     1700   
                                           T        V       H0       H01     AOSYM     SMH    MOLCAS    OPER   

              2       4        0.58       700     1000      520     2100   
                                         GEOM     BASIS   MCVARS     RHF  

 PROGRAMS   *        TOTAL      OPTG    HF-SCF       INT
 CPU TIMES  *        25.31     24.17      0.16      0.83
 REAL TIME  *        28.34 SEC
 DISK USED  *        30.12 MB (local),      478.14 MB (total)
 SF USED    *         0.01 MB
 GA USED    *         0.00 MB       (max)       0.00 MB       (current)
 **********************************************************************************************************************************


 PROGRAM * HESSIAN

 PROGRAM * MCKINLEY (Hessian of the energy)     Author: A. Bernhardsson, R. Lindh

 Orbitals from record         2100.2

 Number of closed-shell orbitals: 20 ( 16  4 )
 Number of occupied orbitals:     20 ( 16  4 )

 Number of electrons= 40     Singlet     Space symmetry=1      Wavefunction type: CLOSED          


 McKinley needed      5.87 seconds of CPU time

 Entering CPHF calculation

 CPHF needed 226 iterations for 27 perturbations.  Total CPU time:    2.11 sec


 HF-SCF hessian saved to record  5300.2

 PROGRAM * FREQUENCIES (Calculation of harmonic vibrational spectra for HF-SCF)


 Permanent Dipole Moment [debye]
   1-  3    0.000000    0.000000    0.000000

 Dipole Moment Norm    0.0000000 [debye]

 Dipole Moment Derivatives [debye/ang]
              1             2             3             4             5             6             7             8
    1     0.0000000     0.0000000     0.0000000     0.0000000     0.0000000     0.0000000     0.0000000     0.0000000
    2     0.0000000     0.0000000     0.0000000     0.0000000     0.0000000     0.0000000     0.0000000     0.0000000
    3     0.0000000     0.0000000     0.0000000     0.0000000     0.0000000     0.0000000     0.0000000     0.0000000
              9            10            11            12            13            14            15            16
    1     0.0000000     0.0000000     0.0000000     0.0000000     0.0000000     0.0000000     0.0000000     0.0000000
    2     0.0000000     0.0000000     0.0000000     0.0000000     0.0000000     0.0000000     0.0000000     0.0000000
    3     0.0000000     0.0000000     0.0000000     0.0000000     0.0000000     0.0000000     0.0000000     0.0000000
             17            18            19            20            21            22            23            24
    1     0.0000000     0.0000000     0.0000000     0.0000000     0.0000000     0.0000000     0.0000000     0.0000000
    2     0.0000000     0.0000000     0.0000000     0.0000000     0.0000000     0.0000000     0.0000000     0.0000000
    3     0.0000000     0.0000000     0.0000000     0.0000000     0.0000000     0.0000000     0.0000000     0.0000000
             25            26            27
    1     0.0000000     0.0000000     0.0000000
    2     0.0000000     0.0000000     0.0000000
    3     0.0000000     0.0000000     0.0000000

 Projecting out rotations and translations

 Force Constants (Second Derivatives of the Energy) in [a.u.]
                             O1X1        O1Y1        O1Z1        C1X2        C1Y2    
           O1X1          1.0116054
           O1Y1          0.0000000   0.0483895
           O1Z1         -0.0008813  -0.0000000   0.1407968
           C1X2         -0.8356929   0.0000000  -0.0003992   1.2398463
           C1Y2         -0.0000000  -0.1169224   0.0000000  -0.0000000   0.2981278
           C1Z2         -0.0008264  -0.0000000  -0.1470355  -0.0020847  -0.0000000
           O2X3         -0.0810011  -0.0000000  -0.0767507  -0.2269227   0.0000000
           O2Y3         -0.0000000   0.0383304  -0.0000000   0.0000000  -0.0896439
           O2Z3         -0.0573317  -0.0000000  -0.0030333  -0.1231381  -0.0000000
           H1X4         -0.0059853  -0.0000000   0.0017244   0.0292974   0.0000000
           H1Y4         -0.0000000  -0.0048199  -0.0000000   0.0000000   0.0016946
           H1Z4          0.0056847  -0.0000000   0.0098203   0.0304410  -0.0000000
           O3X5         -0.0839003   0.0000000   0.0698374  -0.2294715  -0.0000000
           O3Y5         -0.0000000   0.0380203   0.0000000  -0.0000000  -0.0921936
           O3Z5          0.0684116   0.0000000  -0.0057708   0.1038570  -0.0000000
           C2X6         -0.0104035   0.0000000   0.0047341   0.0334154  -0.0000000
           C2Y6         -0.0000000  -0.0050460   0.0000000  -0.0000000  -0.0018986
           C2Z6         -0.0236801   0.0000000   0.0051948   0.0175743   0.0000000
           H2X7          0.0019661   0.0000000   0.0018957  -0.0049303  -0.0000000
           H2Y7          0.0000000   0.0008972   0.0000000  -0.0000000  -0.0000677
           H2Z7          0.0018072   0.0000000   0.0005207  -0.0078099   0.0000000
           H3X8          0.0017058  -0.0003381  -0.0000803  -0.0027709   0.0000920
           H3Y8         -0.0022803   0.0005754  -0.0013306   0.0044206   0.0004519
           H3Z8          0.0034080  -0.0006583  -0.0002464  -0.0092202   0.0030872
           H4X9          0.0017058   0.0003381  -0.0000803  -0.0027709  -0.0000920
           H4Y9          0.0022803   0.0005754   0.0013306  -0.0044206   0.0004519
           H4Z9          0.0034080   0.0006583  -0.0002464  -0.0092202  -0.0030872
                             C1Z2        O2X3        O2Y3        O2Z3        H1X4    
           C1Z2          0.8313677
           O2X3         -0.0833153   0.5609172
           O2Y3         -0.0000000   0.0000000   0.0459087
           O2Z3         -0.2875572  -0.1045112   0.0000000   0.7818071
           H1X4         -0.0277507  -0.2770390   0.0000000   0.2984823   0.2556200
           H1Y4         -0.0000000  -0.0000000  -0.0143359   0.0000000   0.0000000
           H1Z4         -0.0492772   0.2330055  -0.0000000  -0.3851054  -0.2641766
           O3X5          0.0941050   0.0266845   0.0000000  -0.0204683  -0.0028353
           O3Y5         -0.0000000  -0.0000000   0.0163573  -0.0000000   0.0000000
           O3Z5         -0.2874756   0.0285468  -0.0000000  -0.1089090  -0.0072723
           C2X6          0.0154227  -0.0041507  -0.0000000   0.0093837   0.0011482
           C2Y6          0.0000000   0.0000000   0.0039652   0.0000000  -0.0000000
           C2Z6         -0.0720178   0.0009030  -0.0000000   0.0089353  -0.0005379
           H2X7         -0.0035905   0.0010690  -0.0000000  -0.0007018  -0.0001812
           H2Y7         -0.0000000  -0.0000000   0.0000703  -0.0000000   0.0000000
           H2Z7         -0.0005678   0.0009462  -0.0000000  -0.0029906  -0.0003705
           H3X8          0.0040199   0.0002214  -0.0000516  -0.0008574  -0.0000124
           H3Y8         -0.0015787  -0.0007753  -0.0003261   0.0002081   0.0000767
           H3Z8          0.0062817   0.0005878  -0.0008452  -0.0015735  -0.0000493
           H4X9          0.0040199   0.0002214   0.0000516  -0.0008574  -0.0000124
           H4Y9          0.0015787   0.0007753  -0.0003261  -0.0002081  -0.0000767
           H4Z9          0.0062817   0.0005878   0.0008452  -0.0015735  -0.0000493
                             H1Y4        H1Z4        O3X5        O3Y5        O3Z5    
           H1Y4          0.0124348
           H1Z4         -0.0000000   0.4288271
           O3X5          0.0000000  -0.0058460   0.4475561
           O3Y5          0.0031514   0.0000000  -0.0000000   0.0922484
           O3Z5         -0.0000000  -0.0032854  -0.0530015  -0.0000000   0.6959777
           C2X6         -0.0000000   0.0010823  -0.1534679   0.0000000  -0.0895037
           C2Y6          0.0019713   0.0000000   0.0000000  -0.0761323   0.0000000
           C2Z6         -0.0000000  -0.0006576  -0.0550499   0.0000000  -0.2055202
           H2X7         -0.0000000  -0.0003012   0.0178115   0.0000000  -0.0238018
           H2Y7          0.0000199   0.0000000  -0.0000000   0.0010964  -0.0000000
           H2Z7         -0.0000000  -0.0001872   0.0245617  -0.0000000  -0.0406096
           H3X8         -0.0000964   0.0000552  -0.0111886   0.0126317  -0.0136181
           H3Y8         -0.0000581   0.0000914  -0.0026175   0.0087261   0.0041476
           H3Z8         -0.0002547  -0.0000673  -0.0270692   0.0321378  -0.0222036
           H4X9          0.0000964   0.0000552  -0.0111886  -0.0126317  -0.0136181
           H4Y9         -0.0000581  -0.0000914   0.0026175   0.0087261  -0.0041476
           H4Z9          0.0002547  -0.0000673  -0.0270692  -0.0321378  -0.0222036
                             C2X6        C2Y6        C2Z6        H2X7        H2Y7    
           C2X6          0.6654600
           C2Y6          0.0000000   0.6664945
           C2Z6         -0.0771885   0.0000000   0.5680212
           H2X7         -0.2314263   0.0000000   0.1585392   0.2391177
           H2Y7          0.0000000  -0.0642510   0.0000000  -0.0000000   0.0552412
           H2Z7          0.1406618  -0.0000000  -0.1826619  -0.1559444  -0.0000000
           H3X8         -0.1502876   0.1314179  -0.0102801  -0.0117132   0.0219578
           H3Y8          0.1335737  -0.2625515   0.0171097  -0.0019580   0.0034968
           H3Z8         -0.0022962   0.0067597  -0.0606469   0.0119524  -0.0214428
           H4X9         -0.1502876  -0.1314179  -0.0102801  -0.0117132  -0.0219578
           H4Y9         -0.1335737  -0.2625515  -0.0171097   0.0019580   0.0034968
           H4Z9         -0.0022962  -0.0067597  -0.0606469   0.0119524   0.0214428
                             H2Z7        H3X8        H3Y8        H3Z8        H4X9    
           H2Z7          0.2159390
           H3X8         -0.0019261   0.1594626
           H3Y8         -0.0013270  -0.1480266   0.2721964
           H3Z8          0.0052787   0.0202790  -0.0180521   0.0704944
           H4X9         -0.0019261   0.0145829   0.0175867   0.0024077   0.1594626
           H4Y9          0.0013270  -0.0175867  -0.0225109  -0.0007316   0.1480266
           H4Z9          0.0052787   0.0024077   0.0007316   0.0026828   0.0202790
                             H4Y9        H4Z9    
           H4Y9          0.2721964
           H4Z9          0.0180521   0.0704944


 Atomic Masses
   1-  9   15.994910   12.000000   15.994910    1.007825   15.994910   12.000000    1.007825    1.007825    1.007825

 Mass weighted Second Derivative Matrix
                             O1X1        O1Y1        O1Z1        C1X2        C1Y2    
           O1X1          0.0632455
           O1Y1          0.0000000   0.0030253
           O1Z1         -0.0000551  -0.0000000   0.0088026
           C1X2         -0.0603205   0.0000000  -0.0000288   0.1033205
           C1Y2         -0.0000000  -0.0084395   0.0000000  -0.0000000   0.0248440
           C1Z2         -0.0000596  -0.0000000  -0.0106131  -0.0001737  -0.0000000
           O2X3         -0.0050642  -0.0000000  -0.0047984  -0.0163793   0.0000000
           O2Y3         -0.0000000   0.0023964  -0.0000000   0.0000000  -0.0064705
           O2Z3         -0.0035844  -0.0000000  -0.0001896  -0.0088881  -0.0000000
           H1X4         -0.0014907  -0.0000000   0.0004295   0.0084245   0.0000000
           H1Y4         -0.0000000  -0.0012005  -0.0000000   0.0000000   0.0004873
           H1Z4          0.0014159  -0.0000000   0.0024459   0.0087534  -0.0000000
           O3X5         -0.0052454   0.0000000   0.0043662  -0.0165633  -0.0000000
           O3Y5         -0.0000000   0.0023770   0.0000000  -0.0000000  -0.0066546
           O3Z5          0.0042771   0.0000000  -0.0003608   0.0074964  -0.0000000
           C2X6         -0.0007509   0.0000000   0.0003417   0.0027846  -0.0000000
           C2Y6         -0.0000000  -0.0003642   0.0000000  -0.0000000  -0.0001582
           C2Z6         -0.0017092   0.0000000   0.0003750   0.0014645   0.0000000
           H2X7          0.0004897   0.0000000   0.0004722  -0.0014177  -0.0000000
           H2Y7          0.0000000   0.0002235   0.0000000  -0.0000000  -0.0000195
           H2Z7          0.0004501   0.0000000   0.0001297  -0.0022457   0.0000000
           H3X8          0.0004249  -0.0000842  -0.0000200  -0.0007968   0.0000264
           H3Y8         -0.0005679   0.0001433  -0.0003314   0.0012711   0.0001299
           H3Z8          0.0008488  -0.0001640  -0.0000614  -0.0026513   0.0008877
           H4X9          0.0004249   0.0000842  -0.0000200  -0.0007968  -0.0000264
           H4Y9          0.0005679   0.0001433   0.0003314  -0.0012711   0.0001299
           H4Z9          0.0008488   0.0001640  -0.0000614  -0.0026513  -0.0008877
                             C1Z2        O2X3        O2Y3        O2Z3        H1X4    
           C1Z2          0.0692806
           O2X3         -0.0060137   0.0350685
           O2Y3         -0.0000000   0.0000000   0.0028702
           O2Z3         -0.0207560  -0.0065340   0.0000000   0.0488785
           H1X4         -0.0079798  -0.0690013   0.0000000   0.0743421   0.2536353
           H1Y4         -0.0000000  -0.0000000  -0.0035706   0.0000000   0.0000000
           H1Z4         -0.0141698   0.0580340  -0.0000000  -0.0959171  -0.2621255
           O3X5          0.0067925   0.0016683   0.0000000  -0.0012797  -0.0007062
           O3Y5         -0.0000000  -0.0000000   0.0010227  -0.0000000   0.0000000
           O3Z5         -0.0207501   0.0017847  -0.0000000  -0.0068090  -0.0018113
           C2X6          0.0012852  -0.0002996  -0.0000000   0.0006773   0.0003302
           C2Y6          0.0000000   0.0000000   0.0002862   0.0000000  -0.0000000
           C2Z6         -0.0060015   0.0000652  -0.0000000   0.0006450  -0.0001547
           H2X7         -0.0010325   0.0002662  -0.0000000  -0.0001748  -0.0001798
           H2Y7         -0.0000000  -0.0000000   0.0000175  -0.0000000   0.0000000
           H2Z7         -0.0001633   0.0002357  -0.0000000  -0.0007448  -0.0003676
           H3X8          0.0011559   0.0000552  -0.0000128  -0.0002135  -0.0000123
           H3Y8         -0.0004540  -0.0001931  -0.0000812   0.0000518   0.0000761
           H3Z8          0.0018063   0.0001464  -0.0002105  -0.0003919  -0.0000490
           H4X9          0.0011559   0.0000552   0.0000128  -0.0002135  -0.0000123
           H4Y9          0.0004540   0.0001931  -0.0000812  -0.0000518  -0.0000761
           H4Z9          0.0018063   0.0001464   0.0002105  -0.0003919  -0.0000490
                             H1Y4        H1Z4        O3X5        O3Y5        O3Z5    
           H1Y4          0.0123382
           H1Z4         -0.0000000   0.4254976
           O3X5          0.0000000  -0.0014560   0.0279812
           O3Y5          0.0007849   0.0000000  -0.0000000   0.0057674
           O3Z5         -0.0000000  -0.0008183  -0.0033136  -0.0000000   0.0435124
           C2X6         -0.0000000   0.0003112  -0.0110774   0.0000000  -0.0064604
           C2Y6          0.0005668   0.0000000   0.0000000  -0.0054952   0.0000000
           C2Z6         -0.0000000  -0.0001891  -0.0039735   0.0000000  -0.0148345
           H2X7         -0.0000000  -0.0002989   0.0044363   0.0000000  -0.0059282
           H2Y7          0.0000198   0.0000000  -0.0000000   0.0002731  -0.0000000
           H2Z7         -0.0000000  -0.0001858   0.0061175  -0.0000000  -0.0101145
           H3X8         -0.0000957   0.0000548  -0.0027867   0.0031461  -0.0033918
           H3Y8         -0.0000576   0.0000907  -0.0006519   0.0021734   0.0010330
           H3Z8         -0.0002528  -0.0000667  -0.0067420   0.0080045  -0.0055302
           H4X9          0.0000957   0.0000548  -0.0027867  -0.0031461  -0.0033918
           H4Y9         -0.0000576  -0.0000907   0.0006519   0.0021734  -0.0010330
           H4Z9          0.0002528  -0.0000667  -0.0067420  -0.0080045  -0.0055302
                             C2X6        C2Y6        C2Z6        H2X7        H2Y7    
           C2X6          0.0554550
           C2Y6          0.0000000   0.0555412
           C2Z6         -0.0064324   0.0000000   0.0473351
           H2X7         -0.0665471   0.0000000   0.0455883   0.2372611
           H2Y7          0.0000000  -0.0184755   0.0000000  -0.0000000   0.0548123
           H2Z7          0.0404476  -0.0000000  -0.0525248  -0.1547336  -0.0000000
           H3X8         -0.0432156   0.0377895  -0.0029561  -0.0116223   0.0217873
           H3Y8          0.0384094  -0.0754973   0.0049199  -0.0019428   0.0034697
           H3Z8         -0.0006603   0.0019438  -0.0174392   0.0118596  -0.0212763
           H4X9         -0.0432156  -0.0377895  -0.0029561  -0.0116223  -0.0217873
           H4Y9         -0.0384094  -0.0754973  -0.0049199   0.0019428   0.0034697
           H4Z9         -0.0006603  -0.0019438  -0.0174392   0.0118596   0.0212763
                             H2Z7        H3X8        H3Y8        H3Z8        H4X9    
           H2Z7          0.2142624
           H3X8         -0.0019111   0.1582245
           H3Y8         -0.0013167  -0.1468773   0.2700830
           H3Z8          0.0052378   0.0201216  -0.0179120   0.0699471
           H4X9         -0.0019111   0.0144697   0.0174502   0.0023890   0.1582245
           H4Y9          0.0013167  -0.0174502  -0.0223361  -0.0007259   0.1468773
           H4Z9          0.0052378   0.0023890   0.0007259   0.0026619   0.0201216
                             H4Y9        H4Z9    
           H4Y9          0.2700830
           H4Z9          0.0179120   0.0699471


 Mass Weighted 2nd Derivative Matrix Eigenvalues
   1- 10    0.000000    0.000000    0.000000    0.000000    0.000000    0.000000    0.000789    0.001361    0.003866    0.012637
  11- 20    0.013343    0.020622    0.031408    0.038735    0.056584    0.063131    0.067898    0.070225    0.090627    0.098466
  21- 27    0.099262    0.100631    0.151359    0.390204    0.409488    0.415990    0.652619

 Mass Weighted 2nd Derivative Matrix Eigenvectors
              1             2             3             4             5             6             7             8
    1     0.0000000     0.0000000     0.0000000     0.0000000     0.0000000     0.4809561     0.0000000     0.0000000
    2     0.9011459    -0.1057830     0.0973099     0.0043782    -0.0552263     0.0000000    -0.2591395     0.0446829
    3    -0.0827818    -0.1630974     0.5059481    -0.2187230    -0.1642219     0.1236221     0.0000000     0.0000000
    4     0.0002764     0.0011572    -0.0011135    -0.0006007     0.0002836     0.4160318     0.0000000     0.0000000
    5     0.2738181     0.1701713     0.2017414     0.1401870     0.1277961     0.0000000    -0.0745546     0.1210635
    6    -0.0220079     0.0668001     0.2380209    -0.2974536    -0.0912457     0.0073483     0.0000000     0.0000000
    7    -0.0521454    -0.2183303     0.2100865     0.1133302    -0.0535123     0.5856030     0.0000000     0.0000000
    8     0.0200305     0.5979773     0.3852263     0.4434419    -0.0077525     0.0000000     0.2409347    -0.3475023
    9     0.0110496     0.2297700     0.1279148    -0.4226513    -0.0679309    -0.0646813     0.0000000     0.0000000
   10    -0.0222169    -0.0930212     0.0895089     0.0482851    -0.0227993     0.1653133     0.0000000     0.0000000
   11     0.0892908     0.1494570     0.0916068     0.1234705    -0.0756614     0.0000000     0.0585147    -0.1512615
   12    -0.0042097     0.0284370     0.0602436    -0.0909150    -0.0242182    -0.0022217     0.0000000     0.0000000
   13     0.0517007     0.2164684    -0.2082949    -0.1123637     0.0530560     0.3772017     0.0000000     0.0000000
   14    -0.1347256     0.1879027     0.2561100     0.0870295     0.5544291     0.0000000    -0.1919418     0.6399796
   15     0.0115977     0.2320650     0.1257064    -0.4238426    -0.0673684    -0.0657813     0.0000000     0.0000000
   16     0.0975829     0.4085750    -0.3931478    -0.2120818     0.1001409     0.2207544     0.0000000     0.0000000
   17     0.0888116    -0.1933123     0.0900617    -0.1829313     0.6683307     0.0000000     0.2185472    -0.3268762
   18    -0.0175688     0.0853865     0.2201362    -0.3071014    -0.0866902    -0.0015603     0.0000000     0.0000000
   19     0.0372623     0.1560155    -0.1501246    -0.0809840     0.0382391     0.0459487     0.0000000     0.0000000
   20    -0.0847421    -0.0410799     0.0375217    -0.0575051     0.2757051     0.0000000    -0.4045874    -0.4095284
   21     0.0044855     0.0648434     0.0252118    -0.1098128    -0.0152950    -0.0196715     0.0000000     0.0000000
   22     0.1390523     0.0668574    -0.1445211    -0.0939221    -0.0073396     0.0614306     0.4182291     0.1242441
   23     0.1002668    -0.1007077     0.0067439    -0.0780953     0.1742654     0.0000000     0.3431957    -0.0361043
   24    -0.0280237    -0.0493714     0.0804893    -0.1097565     0.0251716     0.0145862    -0.1267314    -0.2470764
   25    -0.0799569     0.1805723    -0.0935660    -0.0345129     0.0679842     0.0614306    -0.4182291    -0.1242441
   26     0.1002668    -0.1007077     0.0067439    -0.0780953     0.1742654     0.0000000     0.3431957    -0.0361043
   27     0.0028535     0.0361109     0.1074843    -0.0356684    -0.0907978     0.0145862     0.1267314     0.2470764
              9            10            11            12            13            14            15            16
    1    -0.2278744     0.2897240     0.0000000    -0.0491674     0.0000000    -0.4319716     0.2008869     0.0000000
    2     0.0000000     0.0000000    -0.0345076     0.0000000    -0.3061211     0.0000000     0.0000000     0.0120853
    3     0.4971917     0.3100608     0.0000000     0.5129724     0.0000000     0.0290940    -0.0098716     0.0000000
    4    -0.2010795     0.2354299     0.0000000    -0.0258215     0.0000000    -0.2438035     0.0982049     0.0000000
    5     0.0000000     0.0000000    -0.1270199     0.0000000     0.8847160     0.0000000     0.0000000    -0.0164482
    6     0.0587765     0.0003197     0.0000000    -0.2685042     0.0000000     0.1103841     0.1610323     0.0000000
    7     0.1653485    -0.3315011     0.0000000    -0.3581240     0.0000000     0.1513750    -0.1921646     0.0000000
    8     0.0000000     0.0000000    -0.2410740     0.0000000    -0.2449396     0.0000000     0.0000000     0.0007111
    9    -0.1861296     0.4770251     0.0000000    -0.4182469     0.0000000     0.2062512    -0.3607487     0.0000000
   10     0.1166485    -0.2904368     0.0000000    -0.1729192     0.0000000     0.2250022     0.0371288     0.0000000
   11     0.0000000     0.0000000     0.9529561     0.0000000     0.0763953     0.0000000     0.0000000    -0.0079027
   12     0.0100371    -0.0356034     0.0000000    -0.1701273     0.0000000     0.1936322    -0.0318304     0.0000000
   13    -0.3056525     0.0042483     0.0000000     0.4184176     0.0000000     0.5687064     0.1710318     0.0000000
   14     0.0000000     0.0000000     0.1248493     0.0000000    -0.2287062     0.0000000     0.0000000     0.2231576
   15     0.0059399    -0.3056122     0.0000000    -0.0771104     0.0000000    -0.0158948     0.6322380     0.0000000
   16     0.4320936    -0.0937564     0.0000000     0.0889496     0.0000000    -0.0681895    -0.3218991     0.0000000
   17     0.0000000     0.0000000     0.0229669     0.0000000    -0.0210332     0.0000000     0.0000000    -0.4188740
   18    -0.3196628    -0.4407857     0.0000000     0.2253830     0.0000000    -0.3669232    -0.3799084     0.0000000
   19     0.2558766    -0.0096075     0.0000000    -0.0930493     0.0000000    -0.1836229     0.0877492     0.0000000
   20     0.0000000     0.0000000    -0.0002331     0.0000000     0.0268552     0.0000000     0.0000000     0.2698190
   21     0.0450885    -0.1092271     0.0000000    -0.0598491     0.0000000    -0.2815843     0.0866682     0.0000000
   22     0.1485416    -0.0196552    -0.0030585     0.0019061     0.0181999    -0.0562909    -0.0345494     0.3155027
   23     0.0045472     0.0039648     0.0034066    -0.0055185     0.0114716    -0.0088429     0.0280194     0.1501113
   24    -0.2088896    -0.1266921    -0.0117535     0.1542983     0.0408658     0.0494624    -0.1709062     0.4781802
   25     0.1485416    -0.0196552     0.0030585     0.0019061    -0.0181999    -0.0562909    -0.0345494    -0.3155027
   26    -0.0045472    -0.0039648     0.0034066     0.0055185     0.0114716     0.0088429    -0.0280194     0.1501113
   27    -0.2088896    -0.1266921     0.0117535     0.1542983    -0.0408658     0.0494624    -0.1709062    -0.4781802
             17            18            19            20            21            22            23            24
    1    -0.1222738     0.2803883    -0.0759707     0.0000000     0.0844179    -0.0778385    -0.5393244    -0.0056633
    2     0.0000000     0.0000000     0.0000000     0.0031864     0.0000000     0.0000000     0.0000000     0.0000000
    3     0.0440876    -0.0021596    -0.0919549     0.0000000     0.0238018    -0.0452735     0.0050988    -0.0000998
    4    -0.0486512    -0.0046328     0.0043505     0.0000000    -0.0498113     0.0629692     0.8076489     0.0112861
    5     0.0000000     0.0000000     0.0000000    -0.0063041     0.0000000     0.0000000     0.0000000     0.0000000
    6    -0.0454356     0.3155988     0.6563040     0.0000000    -0.2601793     0.3558637    -0.0321809    -0.0079224
    7    -0.0248133    -0.4318218     0.0531603     0.0000000     0.0030136    -0.0147007    -0.1088396    -0.0008321
    8     0.0000000     0.0000000     0.0000000     0.0013186     0.0000000     0.0000000     0.0000000     0.0000000
    9     0.0749238    -0.1805863    -0.1959723     0.0000000     0.0733636    -0.1055079    -0.0419223     0.0013632
   10     0.1305208     0.5494687    -0.3134231     0.0000000     0.0736866    -0.0865908     0.1124188     0.0003934
   11     0.0000000     0.0000000     0.0000000     0.0003597     0.0000000     0.0000000     0.0000000     0.0000000
   12     0.1207174     0.4377608    -0.2824685     0.0000000     0.0690776    -0.0841911     0.0906877     0.0015916
   13     0.3168988    -0.0694853     0.0906992     0.0000000    -0.0760007    -0.0031311    -0.0943177    -0.0007460
   14     0.0000000     0.0000000     0.0000000    -0.0432456     0.0000000     0.0000000     0.0000000     0.0000000
   15    -0.2884752    -0.2454025    -0.1876080     0.0000000     0.1632117    -0.1865851     0.0465603     0.0085706
   16    -0.3227225     0.1293747     0.0690678     0.0000000    -0.1156955    -0.1670382     0.0251277     0.1014184
   17     0.0000000     0.0000000     0.0000000    -0.1898579     0.0000000     0.0000000     0.0000000     0.0000000
   18     0.2627162     0.0725601     0.1952971     0.0000000     0.1487319    -0.2096823     0.0322670     0.1154386
   19     0.2905602    -0.0819281    -0.2278615     0.0000000    -0.3829169     0.1781299    -0.0472144     0.3334109
   20     0.0000000     0.0000000     0.0000000     0.7108228     0.0000000     0.0000000     0.0000000     0.0000000
   21     0.4861972    -0.1132693    -0.2236670     0.0000000    -0.3520694     0.1728399    -0.0485819    -0.3082529
   22     0.0919471    -0.0089405     0.0087448     0.2046857     0.4173972     0.3243481     0.0095491    -0.3469287
   23     0.0837914    -0.0273290    -0.0361778     0.0600171     0.2749975     0.2955510    -0.0158261     0.5117751
   24    -0.3407789     0.0208887    -0.2689911    -0.4276484    -0.1848685     0.3754684    -0.0405961    -0.0517568
   25     0.0919471    -0.0089405     0.0087448    -0.2046857     0.4173972     0.3243481     0.0095491    -0.3469287
   26    -0.0837914     0.0273290     0.0361778     0.0600171    -0.2749975    -0.2955510     0.0158261    -0.5117751
   27    -0.3407789     0.0208887    -0.2689911     0.4276484    -0.1848685     0.3754684    -0.0405961    -0.0517568
             25            26            27
    1     0.0000000     0.0020376     0.0031153
    2     0.0008687     0.0000000     0.0000000
    3     0.0000000     0.0009352     0.0016929
    4     0.0000000    -0.0044446     0.0023832
    5     0.0001620     0.0000000     0.0000000
    6     0.0000000    -0.0031682    -0.0057496
    7     0.0000000     0.0009948     0.1397355
    8    -0.0003528     0.0000000     0.0000000
    9     0.0000000     0.0003975    -0.1964138
   10     0.0000000    -0.0007587    -0.5744944
   11    -0.0003533     0.0000000     0.0000000
   12     0.0000000     0.0000279     0.7821680
   13     0.0000000     0.0021116    -0.0005516
   14     0.0021221     0.0000000     0.0000000
   15     0.0000000    -0.0007666     0.0035126
   16     0.0000000    -0.2751384    -0.0001852
   17    -0.3153089     0.0000000     0.0000000
   18     0.0000000     0.1516372    -0.0004185
   19     0.0000000     0.6254235    -0.0004542
   20    -0.0143540     0.0000000     0.0000000
   21     0.0000000    -0.5724175     0.0006584
   22    -0.3869046     0.1597896     0.0002358
   23     0.5458262    -0.2546663    -0.0001220
   24    -0.0506254     0.0289118     0.0000972
   25     0.3869046     0.1597896     0.0002358
   26     0.5458262     0.2546663     0.0001220
   27     0.0506254     0.0289118     0.0000972

   Low Vibration      Wavenumber
        Nr             [1/cm] 
        1                0.00
        2                0.00
        3                0.00
        4                0.00
        5                0.00
        6                0.00

     Vibration        Wavenumber
        Nr             [1/cm] 
        1              144.37
        2              189.68
        3              319.62
        4              577.86
        5              593.79
        6              738.19
        7              911.01
        8             1011.71
        9             1222.78
       10             1291.59
       11             1339.47
       12             1362.23
       13             1547.51
       14             1613.05
       15             1619.56
       16             1630.68
       17             1999.90
       18             3211.07
       19             3289.46
       20             3315.47
       21             4152.74

 FREQUENCIES * CALCULATION OF NORMAL MODES FOR HF-SCF


 Atomic Coordinates

  Nr  Atom  Charge       X              Y              Z

   1   O1    8.00   -2.400031858    0.000000000    0.843803264
   2   C1    6.00   -0.164705277    0.000000000    0.831370796
   3   O2    8.00    1.255740495    0.000000000    2.875445427
   4   H1    1.00    0.171829839    0.000000000    4.292170479
   5   O3    8.00    1.277096302    0.000000000   -1.170513236
   6   C2    6.00    0.034972526    0.000000000   -3.545597309
   7   H2    1.00    1.521444386    0.000000000   -4.939809291
   8   H3    1.00   -1.128139381    1.668179536   -3.742400451
   9   H4    1.00   -1.128139381   -1.668179536   -3.742400451

 Gradient norm at reference geometry: 0.10084D-06

 Normal Modes

                              1 A``       2 A``       3 A`        4 A`        5 A``
 Wavenumbers [cm-1]          144.37      189.68      319.62      577.86      593.79
 Intensities [km/mol]          0.00        0.00        0.00        0.00        0.00
 Intensities [relative]        0.00        0.00        0.00        0.00        0.00
           O1X1             0.00000    -0.00000    -0.05698     0.07244    -0.00000
           O1Y1            -0.06480     0.01117    -0.00000    -0.00000    -0.00863
           O1Z1            -0.00000    -0.00000     0.12432     0.07753    -0.00000
           C1X2             0.00000     0.00000    -0.05805     0.06796    -0.00000
           C1Y2            -0.02152     0.03495     0.00000    -0.00000    -0.03667
           C1Z2            -0.00000     0.00000     0.01697     0.00009     0.00000
           O2X3            -0.00000     0.00000     0.04134    -0.08289     0.00000
           O2Y3             0.06024    -0.08689     0.00000     0.00000    -0.06028
           O2Z3             0.00000     0.00000    -0.04654     0.11928     0.00000
           H1X4            -0.00000    -0.00000     0.11619    -0.28931    -0.00000
           H1Y4             0.05829    -0.15067    -0.00000     0.00000     0.94925
           H1Z4            -0.00000    -0.00000     0.01000    -0.03546     0.00000
           O3X5             0.00000    -0.00000    -0.07643     0.00106     0.00000
           O3Y5            -0.04799     0.16002     0.00000     0.00000     0.03122
           O3Z5             0.00000     0.00000     0.00149    -0.07642     0.00000
           C2X6             0.00000    -0.00000     0.12473    -0.02707     0.00000
           C2Y6             0.06309    -0.09436     0.00000     0.00000     0.00663
           C2Z6            -0.00000     0.00000    -0.09228    -0.12724     0.00000
           H2X7             0.00000    -0.00000     0.25488    -0.00957     0.00000
           H2Y7            -0.40301    -0.40794    -0.00000    -0.00000    -0.00023
           H2Z7             0.00000    -0.00000     0.04491    -0.10880     0.00000
           H3X8             0.41660     0.12376     0.14796    -0.01958    -0.00305
           H3Y8             0.34186    -0.03596     0.00453     0.00395     0.00339
           H3Z8            -0.12624    -0.24612    -0.20808    -0.12620    -0.01171
           H4X9            -0.41660    -0.12376     0.14796    -0.01958     0.00305
           H4Y9             0.34186    -0.03596    -0.00453    -0.00395     0.00339
           H4Z9             0.12624     0.24612    -0.20808    -0.12620     0.01171

                              6 A`        7 A``       8 A`        9 A`       10 A``
 Wavenumbers [cm-1]          738.19      911.01     1011.71     1222.78     1291.59
 Intensities [km/mol]          0.00        0.00        0.00        0.00        0.00
 Intensities [relative]        0.00        0.00        0.00        0.00        0.00
           O1X1            -0.01229    -0.00000    -0.10801     0.05023    -0.00000
           O1Y1            -0.00000    -0.07654     0.00000    -0.00000     0.00302
           O1Z1             0.12826     0.00000     0.00727    -0.00247    -0.00000
           C1X2            -0.00745    -0.00000    -0.07038     0.02835     0.00000
           C1Y2            -0.00000     0.25540    -0.00000     0.00000    -0.00475
           C1Z2            -0.07751    -0.00000     0.03187     0.04649    -0.00000
           O2X3            -0.08955    -0.00000     0.03785    -0.04805     0.00000
           O2Y3             0.00000    -0.06124     0.00000     0.00000     0.00018
           O2Z3            -0.10458     0.00000     0.05157    -0.09020    -0.00000
           H1X4            -0.17225    -0.00000     0.22413     0.03698    -0.00000
           H1Y4            -0.00000     0.07610    -0.00000     0.00000    -0.00787
           H1Z4            -0.16947     0.00000     0.19288    -0.03171    -0.00000
           O3X5             0.10462     0.00000     0.14220     0.04276    -0.00000
           O3Y5             0.00000    -0.05719     0.00000     0.00000     0.05580
           O3Z5            -0.01928    -0.00000    -0.00397     0.15808     0.00000
           C2X6             0.02568     0.00000    -0.01968    -0.09292     0.00000
           C2Y6             0.00000    -0.00607     0.00000     0.00000    -0.12092
           C2Z6             0.06506    -0.00000    -0.10592    -0.10967    -0.00000
           H2X7            -0.09269    -0.00000    -0.18291     0.08741    -0.00000
           H2Y7            -0.00000     0.02675     0.00000    -0.00000     0.26877
           H2Z7            -0.05962    -0.00000    -0.28049     0.08633    -0.00000
           H3X8             0.00190     0.01813    -0.05607    -0.03441     0.31428
           H3Y8            -0.00550     0.01143    -0.00881     0.02791     0.14953
           H3Z8             0.15370     0.04071     0.04927    -0.17024     0.47632
           H4X9             0.00190    -0.01813    -0.05607    -0.03441    -0.31428
           H4Y9             0.00550     0.01143     0.00881    -0.02791     0.14953
           H4Z9             0.15370    -0.04071     0.04927    -0.17024    -0.47632

                             11 A`       12 A`       13 A`       14 A``      15 A` 
 Wavenumbers [cm-1]         1339.47     1362.23     1547.51     1613.05     1619.56
 Intensities [km/mol]          0.00        0.00        0.00        0.00        0.00
 Intensities [relative]        0.00        0.00        0.00        0.00        0.00
           O1X1            -0.03057     0.07011    -0.01900     0.00000     0.02111
           O1Y1            -0.00000     0.00000     0.00000     0.00080     0.00000
           O1Z1             0.01102    -0.00054    -0.02299    -0.00000     0.00595
           C1X2            -0.01404    -0.00134     0.00126     0.00000    -0.01438
           C1Y2             0.00000    -0.00000    -0.00000    -0.00182    -0.00000
           C1Z2            -0.01312     0.09111     0.18946     0.00000    -0.07511
           O2X3            -0.00620    -0.10797     0.01329    -0.00000     0.00075
           O2Y3             0.00000     0.00000    -0.00000     0.00033    -0.00000
           O2Z3             0.01873    -0.04515    -0.04900    -0.00000     0.01834
           H1X4             0.13001     0.54733    -0.31220    -0.00000     0.07340
           H1Y4             0.00000    -0.00000     0.00000     0.00036     0.00000
           H1Z4             0.12025     0.43606    -0.28137    -0.00000     0.06881
           O3X5             0.07924    -0.01737     0.02268    -0.00000    -0.01900
           O3Y5             0.00000     0.00000    -0.00000    -0.01081    -0.00000
           O3Z5            -0.07213    -0.06136    -0.04691     0.00000     0.04081
           C2X6            -0.09316     0.03735     0.01994    -0.00000    -0.03340
           C2Y6            -0.00000    -0.00000     0.00000    -0.05481     0.00000
           C2Z6             0.07584     0.02095     0.05638    -0.00000     0.04294
           H2X7             0.28943    -0.08161    -0.22698    -0.00000    -0.38143
           H2Y7             0.00000     0.00000    -0.00000     0.70806    -0.00000
           H2Z7             0.48431    -0.11283    -0.22280    -0.00000    -0.35070
           H3X8             0.09159    -0.00891     0.00871     0.20389     0.41577
           H3Y8             0.08347    -0.02722    -0.03604     0.05978     0.27393
           H3Z8            -0.33945     0.02081    -0.26794    -0.42599    -0.18415
           H4X9             0.09159    -0.00891     0.00871    -0.20389     0.41577
           H4Y9            -0.08347     0.02722     0.03604     0.05978    -0.27393
           H4Z9            -0.33945     0.02081    -0.26794     0.42599    -0.18415

                             16 A`       17 A`       18 A`       19 A``      20 A` 
 Wavenumbers [cm-1]         1630.68     1999.90     3211.07     3289.46     3315.47
 Intensities [km/mol]          0.00        0.00        0.00        0.00        0.00
 Intensities [relative]        0.00        0.00        0.00        0.00        0.00
           O1X1            -0.01946    -0.13485    -0.00142     0.00000     0.00051
           O1Y1            -0.00000    -0.00000     0.00000     0.00022    -0.00000
           O1Z1            -0.01132     0.00127    -0.00002    -0.00000     0.00023
           C1X2             0.01818     0.23315     0.00326    -0.00000    -0.00128
           C1Y2            -0.00000    -0.00000    -0.00000     0.00005    -0.00000
           C1Z2             0.10273    -0.00929    -0.00229     0.00000    -0.00091
           O2X3            -0.00368    -0.02721    -0.00021    -0.00000     0.00025
           O2Y3            -0.00000     0.00000     0.00000    -0.00009     0.00000
           O2Z3            -0.02638    -0.01048     0.00034    -0.00000     0.00010
           H1X4            -0.08625     0.11198     0.00039    -0.00000    -0.00076
           H1Y4             0.00000     0.00000    -0.00000    -0.00035    -0.00000
           H1Z4            -0.08386     0.09033     0.00159     0.00000     0.00003
           O3X5            -0.00078    -0.02358    -0.00019     0.00000     0.00053
           O3Y5            -0.00000     0.00000     0.00000     0.00053     0.00000
           O3Z5            -0.04665     0.01164     0.00214    -0.00000    -0.00019
           C2X6            -0.04822     0.00725     0.02928     0.00000    -0.07943
           C2Y6             0.00000    -0.00000    -0.00000    -0.09102    -0.00000
           C2Z6            -0.06053     0.00931     0.03332    -0.00000     0.04377
           H2X7             0.17744    -0.04703     0.33211    -0.00000     0.62299
           H2Y7            -0.00000     0.00000    -0.00000    -0.01430    -0.00000
           H2Z7             0.17217    -0.04839    -0.30705     0.00000    -0.57019
           H3X8             0.32309     0.00951    -0.34558    -0.38540     0.15917
           H3Y8             0.29440    -0.01576     0.50978     0.54370    -0.25368
           H3Z8             0.37401    -0.04044    -0.05156    -0.05043     0.02880
           H4X9             0.32309     0.00951    -0.34558     0.38540     0.15917
           H4Y9            -0.29440     0.01576    -0.50978     0.54370     0.25368
           H4Z9             0.37401    -0.04044    -0.05156     0.05043     0.02880

                             21 A` 
 Wavenumbers [cm-1]         4152.74
 Intensities [km/mol]          0.00
 Intensities [relative]        0.00
           O1X1             0.00078
           O1Y1            -0.00000
           O1Z1             0.00042
           C1X2             0.00069
           C1Y2            -0.00000
           C1Z2            -0.00166
           O2X3             0.03494
           O2Y3            -0.00000
           O2Z3            -0.04911
           H1X4            -0.57226
           H1Y4             0.00000
           H1Z4             0.77913
           O3X5            -0.00014
           O3Y5            -0.00000
           O3Z5             0.00088
           C2X6            -0.00005
           C2Y6             0.00000
           C2Z6            -0.00012
           H2X7            -0.00045
           H2Y7            -0.00000
           H2Z7             0.00066
           H3X8             0.00023
           H3Y8            -0.00012
           H3Z8             0.00010
           H4X9             0.00023
           H4Y9             0.00012
           H4Z9             0.00010


 Normal Modes of low/zero frequencies

                                  1           2           3           4           5
 Wavenumbers [cm-1]            0.00        0.00        0.00        0.00        0.00
 Intensities [km/mol]          0.00        0.00        0.00        0.00        0.00
 Intensities [relative]        0.00        0.00        0.00        0.00        0.00
           O1X1             0.00000     0.00000    -0.00000     0.00000     0.00000
           O1Y1             0.22532    -0.02645     0.02433     0.00109    -0.01381
           O1Z1            -0.02070    -0.04078     0.12651    -0.05469    -0.04106
           C1X2             0.00008     0.00033    -0.00032    -0.00017     0.00008
           C1Y2             0.07904     0.04912     0.05824     0.04047     0.03689
           C1Z2            -0.00635     0.01928     0.06871    -0.08587    -0.02634
           O2X3            -0.01304    -0.05459     0.05253     0.02834    -0.01338
           O2Y3             0.00501     0.14952     0.09632     0.11088    -0.00194
           O2Z3             0.00276     0.05745     0.03198    -0.10568    -0.01699
           H1X4            -0.02213    -0.09266     0.08916     0.04810    -0.02271
           H1Y4             0.08894     0.14888     0.09125     0.12299    -0.07537
           H1Z4            -0.00419     0.02833     0.06001    -0.09056    -0.02412
           O3X5             0.01293     0.05413    -0.05208    -0.02810     0.01327
           O3Y5            -0.03369     0.04698     0.06404     0.02176     0.13863
           O3Z5             0.00290     0.05803     0.03143    -0.10598    -0.01684
           C2X6             0.02817     0.11795    -0.11349    -0.06122     0.02891
           C2Y6             0.02564    -0.05580     0.02600    -0.05281     0.19293
           C2Z6            -0.00507     0.02465     0.06355    -0.08865    -0.02503
           H2X7             0.03712     0.15541    -0.14954    -0.08067     0.03809
           H2Y7            -0.08441    -0.04092     0.03738    -0.05728     0.27463
           H2Z7             0.00447     0.06459     0.02511    -0.10939    -0.01524
           H3X8             0.13851     0.06660    -0.14396    -0.09356    -0.00731
           H3Y8             0.09988    -0.10032     0.00672    -0.07779     0.17359
           H3Z8            -0.02791    -0.04918     0.08018    -0.10933     0.02507
           H4X9            -0.07965     0.17987    -0.09320    -0.03438     0.06772
           H4Y9             0.09988    -0.10032     0.00672    -0.07779     0.17359
           H4Z9             0.00284     0.03597     0.10707    -0.03553    -0.09044

                                  6
 Wavenumbers [cm-1]            0.00
 Intensities [km/mol]          0.00
 Intensities [relative]        0.00
           O1X1             0.12026
           O1Y1            -0.00000
           O1Z1             0.03091
           C1X2             0.12010
           C1Y2            -0.00000
           C1Z2             0.00212
           O2X3             0.14642
           O2Y3            -0.00000
           O2Z3            -0.01617
           H1X4             0.16467
           H1Y4            -0.00000
           H1Z4            -0.00221
           O3X5             0.09432
           O3Y5             0.00000
           O3Z5            -0.01645
           C2X6             0.06373
           C2Y6             0.00000
           C2Z6            -0.00045
           H2X7             0.04577
           H2Y7             0.00000
           H2Z7            -0.01959
           H3X8             0.06119
           H3Y8            -0.00000
           H3Z8             0.01453
           H4X9             0.06119
           H4Y9            -0.00000
           H4Z9             0.01453


 Frequencies dumped to record   5400.2

 Zero point energy:  0.07308757 [H]    16040.87 [1/CM]      191.89 [KJ/MOL]
 Frequency information read from record  5400.2


 **********************************************************************************************************************************
 DATASETS  * FILE   NREC   LENGTH (MB)   RECORD NAMES
              1      18       28.96       500      610      700      900      950      970     1000      129      960     1100   
                                          VAR    BASINP    GEOM    SYMINP    ZMAT    AOBASIS   BASIS     P2S    ABASIS      S 
                                         1400     1410     1200     1210     1080     1600     1650     1700   
                                           T        V       H0       H01     AOSYM     SMH    MOLCAS    OPER   

              2       7        0.69       700     1000      520     2100     5300     5450     5400   
                                         GEOM     BASIS   MCVARS     RHF     HESS     NMOD     FREQ   

              4       5        2.47      4100     4000     4200     4300     4400   

 PROGRAMS   *        TOTAL      FREQ      OPTG    HF-SCF       INT
 CPU TIMES  *        33.31      8.00     24.17      0.16      0.83
 REAL TIME  *        36.68 SEC
 DISK USED  *        30.12 MB (local),      478.14 MB (total)
 SF USED    *         2.47 MB
 GA USED    *         0.00 MB       (max)       0.00 MB       (current)
 **********************************************************************************************************************************

 Dump information in style MOLDEN to hco3ch3.molden                                                                  

 Molecular orbitals read from record     2100.2  Type=RHF/CANONICAL  
 Occupation numbers read from record     2100.2  Type=RHF/RHF  
 Orbital energies read from record       2100.2  Type=RHF/CANONICAL  
 Redundancy group numbers read from rec  2100.2  Type=RHF/RHF  

 DUMP ORBITAL  1.1 AS ORBITAL    1  occ=    2.0000  eig=  -20.6109  GROUP=   2
 DUMP ORBITAL  2.1 AS ORBITAL    2  occ=    2.0000  eig=  -20.6088  GROUP=   2
 DUMP ORBITAL  3.1 AS ORBITAL    3  occ=    2.0000  eig=  -20.5380  GROUP=   2
 DUMP ORBITAL  4.1 AS ORBITAL    4  occ=    2.0000  eig=  -11.4293  GROUP=   2
 DUMP ORBITAL  5.1 AS ORBITAL    5  occ=    2.0000  eig=  -11.2918  GROUP=   2
 DUMP ORBITAL  6.1 AS ORBITAL    6  occ=    2.0000  eig=   -1.5312  GROUP=   2
 DUMP ORBITAL  7.1 AS ORBITAL    7  occ=    2.0000  eig=   -1.4192  GROUP=   2
 DUMP ORBITAL  8.1 AS ORBITAL    8  occ=    2.0000  eig=   -1.3792  GROUP=   2
 DUMP ORBITAL  9.1 AS ORBITAL    9  occ=    2.0000  eig=   -1.0026  GROUP=   2
 DUMP ORBITAL 10.1 AS ORBITAL   10  occ=    2.0000  eig=   -0.8438  GROUP=   2
 DUMP ORBITAL 11.1 AS ORBITAL   11  occ=    2.0000  eig=   -0.7636  GROUP=   2
 DUMP ORBITAL 12.1 AS ORBITAL   12  occ=    2.0000  eig=   -0.7180  GROUP=   2
 DUMP ORBITAL  1.2 AS ORBITAL   13  occ=    2.0000  eig=   -0.7114  GROUP=   2
 DUMP ORBITAL 13.1 AS ORBITAL   14  occ=    2.0000  eig=   -0.6348  GROUP=   2
 DUMP ORBITAL 14.1 AS ORBITAL   15  occ=    2.0000  eig=   -0.6193  GROUP=   2
 DUMP ORBITAL  2.2 AS ORBITAL   16  occ=    2.0000  eig=   -0.6156  GROUP=   2
 DUMP ORBITAL 15.1 AS ORBITAL   17  occ=    2.0000  eig=   -0.5430  GROUP=   2
 DUMP ORBITAL  3.2 AS ORBITAL   18  occ=    2.0000  eig=   -0.5086  GROUP=   2
 DUMP ORBITAL  4.2 AS ORBITAL   19  occ=    2.0000  eig=   -0.4756  GROUP=   2
 DUMP ORBITAL 16.1 AS ORBITAL   20  occ=    2.0000  eig=   -0.4741  GROUP=   2

 Total charge:      40.000000
 Frequency information read from record  5400.2

 **********************************************************************************************************************************

 HF/6-311G(D,P)//HF/6-311G(D,P) energy=   -302.761915429516

    OPTG(HF-SCF)          HF-SCF
   -302.76191543   -302.75739740
 **********************************************************************************************************************************
 Molpro calculation terminated
