 Entering Gaussian System, Link 0=g16
 Input=c5h10.com
 Output=c5h10.log
 Initial command:
 /usr/local/g16/l1.exe "/scratch/ddi/Gau-3779689.inp" -scrdir="/scratch/ddi/"
 Entering Link 1 = /usr/local/g16/l1.exe PID=   3779691.
  
 Copyright (c) 1988,1990,1992,1993,1995,1998,2003,2009,2016,
            Gaussian, Inc.  All Rights Reserved.
  
 This is part of the Gaussian(R) 16 program.  It is based on
 the Gaussian(R) 09 system (copyright 2009, Gaussian, Inc.),
 the Gaussian(R) 03 system (copyright 2003, Gaussian, Inc.),
 the Gaussian(R) 98 system (copyright 1998, Gaussian, Inc.),
 the Gaussian(R) 94 system (copyright 1995, Gaussian, Inc.),
 the Gaussian 92(TM) system (copyright 1992, Gaussian, Inc.),
 the Gaussian 90(TM) system (copyright 1990, Gaussian, Inc.),
 the Gaussian 88(TM) system (copyright 1988, Gaussian, Inc.),
 the Gaussian 86(TM) system (copyright 1986, Carnegie Mellon
 University), and the Gaussian 82(TM) system (copyright 1983,
 Carnegie Mellon University). Gaussian is a federally registered
 trademark of Gaussian, Inc.
  
 This software contains proprietary and confidential information,
 including trade secrets, belonging to Gaussian, Inc.
  
 This software is provided under written license and may be
 used, copied, transmitted, or stored only in accord with that
 written license.
  
 The following legend is applicable only to US Government
 contracts under FAR:
  
                    RESTRICTED RIGHTS LEGEND
  
 Use, reproduction and disclosure by the US Government is
 subject to restrictions as set forth in subparagraphs (a)
 and (c) of the Commercial Computer Software - Restricted
 Rights clause in FAR 52.227-19.
  
 Gaussian, Inc.
 340 Quinnipiac St., Bldg. 40, Wallingford CT 06492
  
  
 ---------------------------------------------------------------
 Warning -- This program may not be used in any manner that
 competes with the business of Gaussian, Inc. or will provide
 assistance to any competitor of Gaussian, Inc.  The licensee
 of this program is prohibited from giving any competitor of
 Gaussian, Inc. access to this program.  By using this program,
 the user acknowledges that Gaussian, Inc. is engaged in the
 business of creating and licensing software in the field of
 computational chemistry and represents and warrants to the
 licensee that it is not a competitor of Gaussian, Inc. and that
 it will not use this program in any manner prohibited above.
 ---------------------------------------------------------------
  

 Cite this work as:
 Gaussian 16, Revision A.03,
 M. J. Frisch, G. W. Trucks, H. B. Schlegel, G. E. Scuseria, 
 M. A. Robb, J. R. Cheeseman, G. Scalmani, V. Barone, 
 G. A. Petersson, H. Nakatsuji, X. Li, M. Caricato, A. V. Marenich, 
 J. Bloino, B. G. Janesko, R. Gomperts, B. Mennucci, H. P. Hratchian, 
 J. V. Ortiz, A. F. Izmaylov, J. L. Sonnenberg, D. Williams-Young, 
 F. Ding, F. Lipparini, F. Egidi, J. Goings, B. Peng, A. Petrone, 
 T. Henderson, D. Ranasinghe, V. G. Zakrzewski, J. Gao, N. Rega, 
 G. Zheng, W. Liang, M. Hada, M. Ehara, K. Toyota, R. Fukuda, 
 J. Hasegawa, M. Ishida, T. Nakajima, Y. Honda, O. Kitao, H. Nakai, 
 T. Vreven, K. Throssell, J. A. Montgomery, Jr., J. E. Peralta, 
 F. Ogliaro, M. J. Bearpark, J. J. Heyd, E. N. Brothers, K. N. Kudin, 
 V. N. Staroverov, T. A. Keith, R. Kobayashi, J. Normand, 
 K. Raghavachari, A. P. Rendell, J. C. Burant, S. S. Iyengar, 
 J. Tomasi, M. Cossi, J. M. Millam, M. Klene, C. Adamo, R. Cammi, 
 J. W. Ochterski, R. L. Martin, K. Morokuma, O. Farkas, 
 J. B. Foresman, and D. J. Fox, Gaussian, Inc., Wallingford CT, 2016.
 
 ******************************************
 Gaussian 16:  ES64L-G16RevA.03 25-Dec-2016
                10-Oct-2022 
 ******************************************
 %nprocshared=12
 Will use up to   12 processors via shared memory.
 %chk=c5h10.chk
 ----------------------------------------------------
 #p opt=tight freq hf/6-311++g(d,p) geom=connectivity
 ----------------------------------------------------
 1/7=10,18=20,19=15,38=1,57=2/1,3;
 2/9=110,12=2,17=6,18=5,40=1/2;
 3/5=4,6=6,7=1111,11=9,25=1,30=1,71=1/1,2,3;
 4//1;
 5/5=2,38=5/2;
 6/7=2,8=2,9=2,10=2,28=1/1;
 7//1,2,3,16;
 1/7=10,18=20,19=15/3(2);
 2/9=110/2;
 99//99;
 2/9=110/2;
 3/5=4,6=6,7=1111,11=9,25=1,30=1,71=1/1,2,3;
 4/5=5,16=3,69=1/1;
 5/5=2,38=5/2;
 7//1,2,3,16;
 1/7=10,18=20,19=15/3(-5);
 2/9=110/2;
 6/7=2,8=2,9=2,10=2,19=2,28=1/1;
 99/9=1/99;
 Leave Link    1 at Mon Oct 10 14:11:49 2022, MaxMem=           0 cpu:               0.3 elap:               0.0
 (Enter /usr/local/g16/l101.exe)
 -------------------
 Title Card Required
 -------------------
 Symbolic Z-matrix:
 Charge =  0 Multiplicity = 1
 C
 C                    1    B1
 C                    2    B2       1    A1
 C                    3    B3       2    A2       1    D1       0
 H                    1    B4       4    A3       3    D2       0
 H                    1    B5       4    A4       3    D3       0
 H                    2    B6       1    A5       4    D4       0
 H                    2    B7       1    A6       4    D5       0
 H                    3    B8       2    A7       1    D6       0
 H                    3    B9       2    A8       1    D7       0
 H                    4    B10      3    A9       2    D8       0
 H                    4    B11      3    A10      2    D9       0
 C                    2    B12      1    A11      4    D10      0
 H                    13   B13      2    A12      1    D11      0
 H                    13   B14      2    A13      1    D12      0
       Variables:
  B1                    2.2993                   
  B2                    1.55603                  
  B3                    1.55603                  
  B4                    1.07                     
  B5                    1.07                     
  B6                    1.07                     
  B7                    1.07                     
  B8                    1.07                     
  B9                    1.07                     
  B10                   1.07                     
  B11                   1.07                     
  B12                   1.5143                   
  B13                   1.07                     
  B14                   1.07                     
  A1                   74.72464                  
  A2                  102.38965                  
  A3                  113.30628                  
  A4                  112.84937                  
  A5                   85.4889                   
  A6                  158.92718                  
  A7                  106.26491                  
  A8                  116.69836                  
  A9                  113.26994                  
  A10                 108.69099                  
  A11                  42.27295                  
  A12                 112.84937                  
  A13                 113.30628                  
  D1                  -12.37166                  
  D2                 -168.40036                  
  D3                   69.08233                  
  D4                  123.59031                  
  D5                 -102.67153                  
  D6                  110.5353                   
  D7                 -127.93163                  
  D8                  146.93793                  
  D9                  -92.09124                  
  D10                -118.71158                  
  D11                 117.07846                  
  D12                -120.40423                  
 
 ITRead=  0  0  0  0  0  0  0  0  0  0  0  0  0  0  0
 MicOpt= -1 -1 -1 -1 -1 -1 -1 -1 -1 -1 -1 -1 -1 -1 -1
 NAtoms=     15 NQM=       15 NQMF=       0 NMMI=      0 NMMIF=      0
                NMic=       0 NMicF=      0.
                    Isotopes and Nuclear Properties:
 (Nuclear quadrupole moments (NQMom) in fm**2, nuclear magnetic moments (NMagM)
  in nuclear magnetons)

  Atom         1           2           3           4           5           6           7           8           9          10
 IAtWgt=          12          12          12          12           1           1           1           1           1           1
 AtmWgt=  12.0000000  12.0000000  12.0000000  12.0000000   1.0078250   1.0078250   1.0078250   1.0078250   1.0078250   1.0078250
 NucSpn=           0           0           0           0           1           1           1           1           1           1
 AtZEff=  -0.0000000  -0.0000000  -0.0000000  -0.0000000  -0.0000000  -0.0000000  -0.0000000  -0.0000000  -0.0000000  -0.0000000
 NQMom=    0.0000000   0.0000000   0.0000000   0.0000000   0.0000000   0.0000000   0.0000000   0.0000000   0.0000000   0.0000000
 NMagM=    0.0000000   0.0000000   0.0000000   0.0000000   2.7928460   2.7928460   2.7928460   2.7928460   2.7928460   2.7928460
 AtZNuc=   6.0000000   6.0000000   6.0000000   6.0000000   1.0000000   1.0000000   1.0000000   1.0000000   1.0000000   1.0000000

  Atom        11          12          13          14          15
 IAtWgt=           1           1          12           1           1
 AtmWgt=   1.0078250   1.0078250  12.0000000   1.0078250   1.0078250
 NucSpn=           1           1           0           1           1
 AtZEff=  -0.0000000  -0.0000000  -0.0000000  -0.0000000  -0.0000000
 NQMom=    0.0000000   0.0000000   0.0000000   0.0000000   0.0000000
 NMagM=    2.7928460   2.7928460   0.0000000   2.7928460   2.7928460
 AtZNuc=   1.0000000   1.0000000   6.0000000   1.0000000   1.0000000
 Leave Link  101 at Mon Oct 10 14:11:49 2022, MaxMem=   104857600 cpu:               0.8 elap:               0.1
 (Enter /usr/local/g16/l103.exe)

 GradGradGradGradGradGradGradGradGradGradGradGradGradGradGradGradGradGrad
 Berny optimization.
 Initialization pass.
                           ----------------------------
                           !    Initial Parameters    !
                           ! (Angstroms and Degrees)  !
 --------------------------                            --------------------------
 ! Name  Definition              Value          Derivative Info.                !
 --------------------------------------------------------------------------------
 ! R1    R(1,4)                  1.5143         estimate D2E/DX2                !
 ! R2    R(1,5)                  1.07           estimate D2E/DX2                !
 ! R3    R(1,6)                  1.07           estimate D2E/DX2                !
 ! R4    R(1,13)                 1.5579         estimate D2E/DX2                !
 ! R5    R(2,3)                  1.556          estimate D2E/DX2                !
 ! R6    R(2,7)                  1.07           estimate D2E/DX2                !
 ! R7    R(2,8)                  1.07           estimate D2E/DX2                !
 ! R8    R(2,13)                 1.5143         estimate D2E/DX2                !
 ! R9    R(3,4)                  1.556          estimate D2E/DX2                !
 ! R10   R(3,9)                  1.07           estimate D2E/DX2                !
 ! R11   R(3,10)                 1.07           estimate D2E/DX2                !
 ! R12   R(4,11)                 1.07           estimate D2E/DX2                !
 ! R13   R(4,12)                 1.07           estimate D2E/DX2                !
 ! R14   R(13,14)                1.07           estimate D2E/DX2                !
 ! R15   R(13,15)                1.07           estimate D2E/DX2                !
 ! A1    A(4,1,5)              113.3063         estimate D2E/DX2                !
 ! A2    A(4,1,6)              112.8494         estimate D2E/DX2                !
 ! A3    A(4,1,13)              96.8961         estimate D2E/DX2                !
 ! A4    A(5,1,6)              107.5368         estimate D2E/DX2                !
 ! A5    A(5,1,13)             114.4522         estimate D2E/DX2                !
 ! A6    A(6,1,13)             111.7052         estimate D2E/DX2                !
 ! A7    A(3,2,7)              108.691          estimate D2E/DX2                !
 ! A8    A(3,2,8)              113.2699         estimate D2E/DX2                !
 ! A9    A(3,2,13)             103.6042         estimate D2E/DX2                !
 ! A10   A(7,2,8)              108.7358         estimate D2E/DX2                !
 ! A11   A(7,2,13)             104.6844         estimate D2E/DX2                !
 ! A12   A(8,2,13)             117.2595         estimate D2E/DX2                !
 ! A13   A(2,3,4)              102.3897         estimate D2E/DX2                !
 ! A14   A(2,3,9)              106.2649         estimate D2E/DX2                !
 ! A15   A(2,3,10)             116.6984         estimate D2E/DX2                !
 ! A16   A(4,3,9)              116.6984         estimate D2E/DX2                !
 ! A17   A(4,3,10)             106.2649         estimate D2E/DX2                !
 ! A18   A(9,3,10)             108.8259         estimate D2E/DX2                !
 ! A19   A(1,4,3)              103.6042         estimate D2E/DX2                !
 ! A20   A(1,4,11)             117.2595         estimate D2E/DX2                !
 ! A21   A(1,4,12)             104.6844         estimate D2E/DX2                !
 ! A22   A(3,4,11)             113.2699         estimate D2E/DX2                !
 ! A23   A(3,4,12)             108.691          estimate D2E/DX2                !
 ! A24   A(11,4,12)            108.7358         estimate D2E/DX2                !
 ! A25   A(1,13,2)              96.8961         estimate D2E/DX2                !
 ! A26   A(1,13,14)            111.7052         estimate D2E/DX2                !
 ! A27   A(1,13,15)            114.4522         estimate D2E/DX2                !
 ! A28   A(2,13,14)            112.8494         estimate D2E/DX2                !
 ! A29   A(2,13,15)            113.3063         estimate D2E/DX2                !
 ! A30   A(14,13,15)           107.5368         estimate D2E/DX2                !
 ! D1    D(5,1,4,3)           -168.4004         estimate D2E/DX2                !
 ! D2    D(5,1,4,11)            66.0126         estimate D2E/DX2                !
 ! D3    D(5,1,4,12)           -54.5552         estimate D2E/DX2                !
 ! D4    D(6,1,4,3)             69.0823         estimate D2E/DX2                !
 ! D5    D(6,1,4,11)           -56.5048         estimate D2E/DX2                !
 ! D6    D(6,1,4,12)          -177.0725         estimate D2E/DX2                !
 ! D7    D(13,1,4,3)           -47.9961         estimate D2E/DX2                !
 ! D8    D(13,1,4,11)         -173.5832         estimate D2E/DX2                !
 ! D9    D(13,1,4,12)           65.849          estimate D2E/DX2                !
 ! D10   D(4,1,13,2)            58.9548         estimate D2E/DX2                !
 ! D11   D(4,1,13,14)          -59.023          estimate D2E/DX2                !
 ! D12   D(4,1,13,15)          178.4791         estimate D2E/DX2                !
 ! D13   D(5,1,13,2)           178.4791         estimate D2E/DX2                !
 ! D14   D(5,1,13,14)           60.5013         estimate D2E/DX2                !
 ! D15   D(5,1,13,15)          -61.9966         estimate D2E/DX2                !
 ! D16   D(6,1,13,2)           -59.023          estimate D2E/DX2                !
 ! D17   D(6,1,13,14)         -177.0009         estimate D2E/DX2                !
 ! D18   D(6,1,13,15)           60.5013         estimate D2E/DX2                !
 ! D19   D(7,2,3,4)            -92.0912         estimate D2E/DX2                !
 ! D20   D(7,2,3,9)             30.8157         estimate D2E/DX2                !
 ! D21   D(7,2,3,10)           152.3488         estimate D2E/DX2                !
 ! D22   D(8,2,3,4)            146.9379         estimate D2E/DX2                !
 ! D23   D(8,2,3,9)            -90.1551         estimate D2E/DX2                !
 ! D24   D(8,2,3,10)            31.378          estimate D2E/DX2                !
 ! D25   D(13,2,3,4)            18.8374         estimate D2E/DX2                !
 ! D26   D(13,2,3,9)           141.7443         estimate D2E/DX2                !
 ! D27   D(13,2,3,10)          -96.7226         estimate D2E/DX2                !
 ! D28   D(3,2,13,1)           -47.9961         estimate D2E/DX2                !
 ! D29   D(3,2,13,14)           69.0823         estimate D2E/DX2                !
 ! D30   D(3,2,13,15)         -168.4004         estimate D2E/DX2                !
 ! D31   D(7,2,13,1)            65.849          estimate D2E/DX2                !
 ! D32   D(7,2,13,14)         -177.0725         estimate D2E/DX2                !
 ! D33   D(7,2,13,15)          -54.5552         estimate D2E/DX2                !
 ! D34   D(8,2,13,1)          -173.5832         estimate D2E/DX2                !
 ! D35   D(8,2,13,14)          -56.5048         estimate D2E/DX2                !
 ! D36   D(8,2,13,15)           66.0126         estimate D2E/DX2                !
 ! D37   D(2,3,4,1)             18.8374         estimate D2E/DX2                !
 ! D38   D(2,3,4,11)           146.9379         estimate D2E/DX2                !
 ! D39   D(2,3,4,12)           -92.0912         estimate D2E/DX2                !
 ! D40   D(9,3,4,1)            -96.7226         estimate D2E/DX2                !
 ! D41   D(9,3,4,11)            31.378          estimate D2E/DX2                !
 ! D42   D(9,3,4,12)           152.3488         estimate D2E/DX2                !
 ! D43   D(10,3,4,1)           141.7443         estimate D2E/DX2                !
 ! D44   D(10,3,4,11)          -90.1551         estimate D2E/DX2                !
 ! D45   D(10,3,4,12)           30.8157         estimate D2E/DX2                !
 --------------------------------------------------------------------------------
 Trust Radius=3.00D-01 FncErr=1.00D-07 GrdErr=1.00D-07 EigMax=2.50D+02 EigMin=1.00D-04
 Number of steps in this run=    100 maximum allowed number of steps=    100.
 GradGradGradGradGradGradGradGradGradGradGradGradGradGradGradGradGradGrad

 Leave Link  103 at Mon Oct 10 14:11:49 2022, MaxMem=   104857600 cpu:               0.1 elap:               0.0
 (Enter /usr/local/g16/l202.exe)
                          Input orientation:                          
 ---------------------------------------------------------------------
 Center     Atomic      Atomic             Coordinates (Angstroms)
 Number     Number       Type             X           Y           Z
 ---------------------------------------------------------------------
      1          6           0        0.000000    0.000000    0.000000
      2          6           0        0.000000    0.000000    2.299301
      3          6           0        1.501059    0.000000    1.889352
      4          6           0        1.432020   -0.325619    0.369338
      5          1           0       -0.277060   -0.351916   -0.971747
      6          1           0       -0.209991    1.048604    0.035131
      7          1           0       -0.378439    0.997297    2.215143
      8          1           0       -0.165518   -0.347298    3.297744
      9          1           0        1.885084    0.961905    2.157985
     10          1           0        2.119633   -0.753978    2.329560
     11          1           0        2.204668    0.147590   -0.199862
     12          1           0        1.510871   -1.385047    0.241686
     13          6           0       -0.675248   -0.762641    1.178793
     14          1           0       -0.423368   -1.802557    1.173278
     15          1           0       -1.742535   -0.689526    1.200083
 ---------------------------------------------------------------------
                    Distance matrix (angstroms):
                    1          2          3          4          5
     1  C    0.000000
     2  C    2.299301   0.000000
     3  C    2.413053   1.556032   0.000000
     4  C    1.514305   2.425173   1.556032   0.000000
     5  H    1.070000   3.301570   3.386951   2.172592   0.000000
     6  H    1.070000   2.504023   2.732287   2.167114   1.726197
     7  H    2.458592   1.070000   2.152499   2.904284   3.462214
     8  H    3.320109   1.070000   2.209448   3.335889   4.270951
     9  H    3.022532   2.121031   1.070000   2.249943   4.024452
    10  H    3.238545   2.249943   1.070000   2.121031   4.099320
    11  H    2.218623   3.335889   2.209448   1.070000   2.646561
    12  H    2.063856   2.904284   2.152499   1.070000   2.395095
    13  C    1.557926   1.514305   2.413053   2.299301   2.225325
    14  H    2.192039   2.167114   2.732287   2.504023   2.593627
    15  H    2.225325   2.172592   3.386951   3.301570   2.641674
                    6          7          8          9         10
     6  H    0.000000
     7  H    2.187112   0.000000
     8  H    3.548966   1.739338   0.000000
     9  H    2.983850   2.264521   2.686639   0.000000
    10  H    3.733745   3.052936   2.514892   1.740317   0.000000
    11  H    2.587977   3.636852   4.253932   2.514892   2.686639
    12  H    2.987756   3.624857   3.636852   3.052936   2.264521
    13  C    2.192039   2.063855   2.218623   3.238545   3.022532
    14  H    3.077341   2.987756   2.587977   3.733745   2.983850
    15  H    2.593627   2.395095   2.646561   4.099320   4.024452
                   11         12         13         14         15
    11  H    0.000000
    12  H    1.739338   0.000000
    13  C    3.320109   2.458592   0.000000
    14  H    3.548966   2.187112   1.070000   0.000000
    15  H    4.270951   3.462214   1.070000   1.726197   0.000000
 Stoichiometry    C5H10
 Framework group  C2[C2(C),X(C4H10)]
 Deg. of freedom    20
 Full point group                 C2      NOp   2
 Largest Abelian subgroup         C2      NOp   2
 Largest concise Abelian subgroup C2      NOp   2
                         Standard orientation:                         
 ---------------------------------------------------------------------
 Center     Atomic      Atomic             Coordinates (Angstroms)
 Number     Number       Type             X           Y           Z
 ---------------------------------------------------------------------
      1          6           0        0.000000    0.778963   -0.980508
      2          6           0       -0.739769   -0.960785    0.328233
      3          6           0       -0.000000   -0.000000    1.303358
      4          6           0        0.739769    0.960785    0.328233
      5          1           0        0.501637    1.221872   -1.815428
      6          1           0       -0.993796    1.174682   -0.954492
      7          1           0       -1.719489   -0.572934    0.142171
      8          1           0       -0.830796   -1.958000    0.705297
      9          1           0       -0.754166    0.434063    1.926032
     10          1           0        0.754166   -0.434063    1.926032
     11          1           0        0.830796    1.958000    0.705297
     12          1           0        1.719489    0.572934    0.142171
     13          6           0       -0.000000   -0.778963   -0.980508
     14          1           0        0.993796   -1.174682   -0.954492
     15          1           0       -0.501637   -1.221872   -1.815428
 ---------------------------------------------------------------------
 Rotational constants (GHZ):           6.7020735           6.6389750           4.0310409
 Leave Link  202 at Mon Oct 10 14:11:49 2022, MaxMem=   104857600 cpu:               0.1 elap:               0.0
 (Enter /usr/local/g16/l301.exe)
 Standard basis: 6-311++G(d,p) (5D, 7F)
 Ernie: Thresh=  0.10000D-02 Tol=  0.10000D-05 Strict=F.
 There are    94 symmetry adapted cartesian basis functions of A   symmetry.
 There are    91 symmetry adapted cartesian basis functions of B   symmetry.
 There are    91 symmetry adapted basis functions of A   symmetry.
 There are    89 symmetry adapted basis functions of B   symmetry.
   180 basis functions,   270 primitive gaussians,   185 cartesian basis functions
    20 alpha electrons       20 beta electrons
       nuclear repulsion energy       190.8478308994 Hartrees.
 IExCor=    0 DFT=F Ex=HF Corr=None ExCW=0 ScaHFX=  1.000000
 ScaDFX=  1.000000  1.000000  1.000000  1.000000 ScalE2=  1.000000  1.000000
 IRadAn=      5 IRanWt=     -1 IRanGd=            0 ICorTp=0 IEmpDi=  4
 NAtoms=   15 NActive=   15 NUniq=    8 SFac= 3.52D+00 NAtFMM=   60 NAOKFM=F Big=F
 Integral buffers will be    131072 words long.
 Raffenetti 1 integral format.
 Two-electron integral symmetry is turned on.
 Leave Link  301 at Mon Oct 10 14:11:49 2022, MaxMem=   104857600 cpu:               0.3 elap:               0.0
 (Enter /usr/local/g16/l302.exe)
 NPDir=0 NMtPBC=     1 NCelOv=     1 NCel=       1 NClECP=     1 NCelD=      1
         NCelK=      1 NCelE2=     1 NClLst=     1 CellRange=     0.0.
 One-electron integrals computed using PRISM.
 One-electron integral symmetry used in STVInt
 NBasis=   180 RedAO= T EigKep=  1.04D-05  NBF=    91    89
 NBsUse=   180 1.00D-06 EigRej= -1.00D+00 NBFU=    91    89
 Leave Link  302 at Mon Oct 10 14:11:49 2022, MaxMem=   104857600 cpu:               0.9 elap:               0.1
 (Enter /usr/local/g16/l303.exe)
 DipDrv:  MaxL=1.
 Leave Link  303 at Mon Oct 10 14:11:50 2022, MaxMem=   104857600 cpu:               0.2 elap:               0.0
 (Enter /usr/local/g16/l401.exe)
 ExpMin= 3.60D-02 ExpMax= 4.56D+03 ExpMxC= 6.82D+02 IAcc=3 IRadAn=         5 AccDes= 0.00D+00
 Harris functional with IExCor=  205 and IRadAn=       5 diagonalized for initial guess.
 HarFok:  IExCor=  205 AccDes= 0.00D+00 IRadAn=         5 IDoV= 1 UseB2=F ITyADJ=14
 ICtDFT=  3500011 ScaDFX=  1.000000  1.000000  1.000000  1.000000
 FoFCou: FMM=F IPFlag=           0 FMFlag=      100000 FMFlg1=           0
         NFxFlg=           0 DoJE=T BraDBF=F KetDBF=T FulRan=T
         wScrn=  0.000000 ICntrl=       500 IOpCl=  0 I1Cent=   200000004 NGrid=           0
         NMat0=    1 NMatS0=      1 NMatT0=    0 NMatD0=    1 NMtDS0=    0 NMtDT0=    0
 Petite list used in FoFCou.
 Harris En= -195.728009299302    
 JPrj=0 DoOrth=F DoCkMO=F.
 Initial guess orbital symmetries:
       Occupied  (A) (B) (A) (B) (A) (A) (B) (A) (B) (A) (A) (B)
                 (B) (A) (B) (A) (B) (A) (A) (B)
       Virtual   (A) (B) (B) (A) (A) (B) (B) (A) (B) (A) (B) (A)
                 (B) (A) (B) (A) (B) (A) (B) (B) (A) (B) (A) (B)
                 (A) (A) (B) (A) (A) (B) (B) (B) (A) (B) (A) (B)
                 (A) (B) (A) (A) (B) (B) (A) (A) (B) (B) (B) (A)
                 (A) (B) (A) (A) (B) (B) (A) (B) (A) (A) (B) (A)
                 (B) (B) (A) (B) (A) (A) (B) (A) (B) (A) (B) (A)
                 (A) (B) (B) (B) (A) (A) (A) (B) (A) (B) (A) (B)
                 (B) (A) (A) (B) (A) (A) (B) (B) (B) (A) (A) (B)
                 (A) (B) (B) (A) (B) (B) (A) (B) (A) (A) (B) (B)
                 (A) (B) (A) (A) (B) (A) (B) (A) (B) (B) (A) (A)
                 (B) (A) (B) (A) (B) (A) (A) (B) (A) (B) (B) (A)
                 (A) (B) (A) (B) (A) (B) (A) (B) (A) (B) (A) (B)
                 (A) (B) (A) (B) (A) (B) (A) (B) (B) (B) (A) (B)
                 (A) (A) (B) (A)
 The electronic state of the initial guess is 1-A.
 Leave Link  401 at Mon Oct 10 14:11:50 2022, MaxMem=   104857600 cpu:               2.2 elap:               0.2
 (Enter /usr/local/g16/l502.exe)
 Integral symmetry usage will be decided dynamically.
 Closed shell SCF:
 Using DIIS extrapolation, IDIIS=  1040.
 NGot=   104857600 LenX=   104784474 LenY=   104749808
 Requested convergence on RMS density matrix=1.00D-08 within 128 cycles.
 Requested convergence on MAX density matrix=1.00D-06.
 Requested convergence on             energy=1.00D-06.
 No special actions if energy rises.
 Fock matrices will be formed incrementally for  20 cycles.

 Cycle   1  Pass 0  IDiag  1:
 FoFJK:  IHMeth= 1 ICntrl=       0 DoSepK=F KAlg= 0 I1Cent=           0 FoldK=F
 IRaf= 990000000 NMat=       1 IRICut=       1 DoRegI=T DoRafI=F ISym2E= 1 IDoP0=0 IntGTp=1.
 FoFCou: FMM=F IPFlag=           0 FMFlag=      100000 FMFlg1=           0
         NFxFlg=           0 DoJE=F BraDBF=F KetDBF=F FulRan=T
         wScrn=  0.000000 ICntrl=         0 IOpCl=  0 I1Cent=           0 NGrid=           0
         NMat0=    1 NMatS0=      1 NMatT0=    0 NMatD0=    1 NMtDS0=    0 NMtDT0=    0
 Petite list used in FoFCou.
 E= -194.843648394756    
 DIIS: error= 5.68D-02 at cycle   1 NSaved=   1.
 NSaved= 1 IEnMin= 1 EnMin= -194.843648394756     IErMin= 1 ErrMin= 5.68D-02
 ErrMax= 5.68D-02  0.00D+00 EMaxC= 1.00D-01 BMatC= 5.32D-01 BMatP= 5.32D-01
 IDIUse=3 WtCom= 4.32D-01 WtEn= 5.68D-01
 Coeff-Com:  0.100D+01
 Coeff-En:   0.100D+01
 Coeff:      0.100D+01
 Gap=     0.487 Goal=   None    Shift=    0.000
 GapD=    0.487 DampG=2.000 DampE=0.500 DampFc=1.0000 IDamp=-1.
 RMSDP=8.71D-03 MaxDP=3.49D-01              OVMax= 1.38D-01

 Cycle   2  Pass 0  IDiag  1:
 RMSU=  6.10D-03    CP:  6.34D-01
 E= -195.106291654909     Delta-E=       -0.262643260153 Rises=F Damp=F
 DIIS: error= 2.91D-02 at cycle   2 NSaved=   2.
 NSaved= 2 IEnMin= 2 EnMin= -195.106291654909     IErMin= 2 ErrMin= 2.91D-02
 ErrMax= 2.91D-02  0.00D+00 EMaxC= 1.00D-01 BMatC= 9.00D-02 BMatP= 5.32D-01
 IDIUse=3 WtCom= 7.09D-01 WtEn= 2.91D-01
 Coeff-Com:  0.237D+00 0.763D+00
 Coeff-En:   0.000D+00 0.100D+01
 Coeff:      0.168D+00 0.832D+00
 Gap=     0.541 Goal=   None    Shift=    0.000
 RMSDP=5.05D-03 MaxDP=1.86D-01 DE=-2.63D-01 OVMax= 7.32D-02

 Cycle   3  Pass 0  IDiag  1:
 RMSU=  1.81D-03    CP:  8.32D-01  4.59D-01
 E= -195.183178624162     Delta-E=       -0.076886969253 Rises=F Damp=F
 DIIS: error= 1.22D-02 at cycle   3 NSaved=   3.
 NSaved= 3 IEnMin= 3 EnMin= -195.183178624162     IErMin= 3 ErrMin= 1.22D-02
 ErrMax= 1.22D-02  0.00D+00 EMaxC= 1.00D-01 BMatC= 1.08D-02 BMatP= 9.00D-02
 IDIUse=3 WtCom= 8.78D-01 WtEn= 1.22D-01
 Coeff-Com: -0.204D-01 0.232D+00 0.788D+00
 Coeff-En:   0.000D+00 0.000D+00 0.100D+01
 Coeff:     -0.179D-01 0.204D+00 0.814D+00
 Gap=     0.488 Goal=   None    Shift=    0.000
 RMSDP=7.26D-04 MaxDP=1.99D-02 DE=-7.69D-02 OVMax= 1.99D-02

 Cycle   4  Pass 0  IDiag  1:
 RMSU=  4.64D-04    CP:  8.08D-01  5.22D-01  1.03D+00
 E= -195.193280828826     Delta-E=       -0.010102204663 Rises=F Damp=F
 DIIS: error= 1.38D-03 at cycle   4 NSaved=   4.
 NSaved= 4 IEnMin= 4 EnMin= -195.193280828826     IErMin= 4 ErrMin= 1.38D-03
 ErrMax= 1.38D-03  0.00D+00 EMaxC= 1.00D-01 BMatC= 1.07D-04 BMatP= 1.08D-02
 IDIUse=3 WtCom= 9.86D-01 WtEn= 1.38D-02
 Coeff-Com: -0.311D-02-0.279D-01 0.637D-02 0.102D+01
 Coeff-En:   0.000D+00 0.000D+00 0.000D+00 0.100D+01
 Coeff:     -0.307D-02-0.276D-01 0.628D-02 0.102D+01
 Gap=     0.488 Goal=   None    Shift=    0.000
 RMSDP=4.80D-04 MaxDP=2.29D-02 DE=-1.01D-02 OVMax= 3.95D-03

 Cycle   5  Pass 0  IDiag  1:
 RMSU=  1.34D-04    CP:  8.27D-01  4.77D-01  1.13D+00  1.21D+00
 E= -195.193453590219     Delta-E=       -0.000172761393 Rises=F Damp=F
 DIIS: error= 1.82D-04 at cycle   5 NSaved=   5.
 NSaved= 5 IEnMin= 5 EnMin= -195.193453590219     IErMin= 5 ErrMin= 1.82D-04
 ErrMax= 1.82D-04  0.00D+00 EMaxC= 1.00D-01 BMatC= 5.06D-06 BMatP= 1.07D-04
 IDIUse=3 WtCom= 9.98D-01 WtEn= 1.82D-03
 Coeff-Com:  0.171D-02-0.906D-02-0.498D-01-0.196D+00 0.125D+01
 Coeff-En:   0.000D+00 0.000D+00 0.000D+00 0.000D+00 0.100D+01
 Coeff:      0.170D-02-0.904D-02-0.497D-01-0.196D+00 0.125D+01
 Gap=     0.488 Goal=   None    Shift=    0.000
 RMSDP=1.74D-04 MaxDP=8.57D-03 DE=-1.73D-04 OVMax= 1.29D-03

 Cycle   6  Pass 0  IDiag  1:
 RMSU=  1.17D-05    CP:  8.33D-01  4.62D-01  1.17D+00  1.33D+00  1.38D+00
 E= -195.193466592714     Delta-E=       -0.000013002495 Rises=F Damp=F
 DIIS: error= 2.75D-05 at cycle   6 NSaved=   6.
 NSaved= 6 IEnMin= 6 EnMin= -195.193466592714     IErMin= 6 ErrMin= 2.75D-05
 ErrMax= 2.75D-05  0.00D+00 EMaxC= 1.00D-01 BMatC= 5.91D-08 BMatP= 5.06D-06
 IDIUse=1 WtCom= 1.00D+00 WtEn= 0.00D+00
 Coeff-Com: -0.259D-04 0.669D-03 0.288D-02-0.200D-02-0.912D-01 0.109D+01
 Coeff:     -0.259D-04 0.669D-03 0.288D-02-0.200D-02-0.912D-01 0.109D+01
 Gap=     0.488 Goal=   None    Shift=    0.000
 RMSDP=1.68D-05 MaxDP=9.16D-04 DE=-1.30D-05 OVMax= 1.44D-04

 Cycle   7  Pass 0  IDiag  1:
 RMSU=  2.41D-06    CP:  8.34D-01  4.60D-01  1.17D+00  1.34D+00  1.43D+00
                    CP:  1.26D+00
 E= -195.193466724965     Delta-E=       -0.000000132251 Rises=F Damp=F
 DIIS: error= 6.18D-06 at cycle   7 NSaved=   7.
 NSaved= 7 IEnMin= 7 EnMin= -195.193466724965     IErMin= 7 ErrMin= 6.18D-06
 ErrMax= 6.18D-06  0.00D+00 EMaxC= 1.00D-01 BMatC= 6.13D-09 BMatP= 5.91D-08
 IDIUse=1 WtCom= 1.00D+00 WtEn= 0.00D+00
 Coeff-Com: -0.911D-04 0.594D-03 0.313D-02 0.927D-02-0.811D-01 0.224D+00
 Coeff-Com:  0.844D+00
 Coeff:     -0.911D-04 0.594D-03 0.313D-02 0.927D-02-0.811D-01 0.224D+00
 Coeff:      0.844D+00
 Gap=     0.488 Goal=   None    Shift=    0.000
 RMSDP=2.81D-06 MaxDP=1.49D-04 DE=-1.32D-07 OVMax= 2.61D-05

 Initial convergence to 1.0D-05 achieved.  Increase integral accuracy.
 Cycle   8  Pass 1  IDiag  1:
 E= -195.193466733109     Delta-E=       -0.000000008144 Rises=F Damp=F
 DIIS: error= 1.26D-06 at cycle   1 NSaved=   1.
 NSaved= 1 IEnMin= 1 EnMin= -195.193466733109     IErMin= 1 ErrMin= 1.26D-06
 ErrMax= 1.26D-06  0.00D+00 EMaxC= 1.00D-01 BMatC= 2.32D-10 BMatP= 2.32D-10
 IDIUse=1 WtCom= 1.00D+00 WtEn= 0.00D+00
 Coeff-Com:  0.100D+01
 Coeff:      0.100D+01
 Gap=     0.488 Goal=   None    Shift=    0.000
 RMSDP=2.81D-06 MaxDP=1.49D-04 DE=-8.14D-09 OVMax= 6.07D-06

 Cycle   9  Pass 1  IDiag  1:
 RMSU=  5.78D-07    CP:  1.00D+00
 E= -195.193466733534     Delta-E=       -0.000000000425 Rises=F Damp=F
 DIIS: error= 4.30D-07 at cycle   2 NSaved=   2.
 NSaved= 2 IEnMin= 2 EnMin= -195.193466733534     IErMin= 2 ErrMin= 4.30D-07
 ErrMax= 4.30D-07  0.00D+00 EMaxC= 1.00D-01 BMatC= 3.71D-11 BMatP= 2.32D-10
 IDIUse=1 WtCom= 1.00D+00 WtEn= 0.00D+00
 Coeff-Com:  0.564D-01 0.944D+00
 Coeff:      0.564D-01 0.944D+00
 Gap=     0.488 Goal=   None    Shift=    0.000
 RMSDP=2.08D-07 MaxDP=9.13D-06 DE=-4.25D-10 OVMax= 2.15D-06

 Cycle  10  Pass 1  IDiag  1:
 RMSU=  6.25D-08    CP:  1.00D+00  1.28D+00
 E= -195.193466733591     Delta-E=       -0.000000000058 Rises=F Damp=F
 DIIS: error= 2.06D-07 at cycle   3 NSaved=   3.
 NSaved= 3 IEnMin= 3 EnMin= -195.193466733591     IErMin= 3 ErrMin= 2.06D-07
 ErrMax= 2.06D-07  0.00D+00 EMaxC= 1.00D-01 BMatC= 5.72D-12 BMatP= 3.71D-11
 IDIUse=1 WtCom= 1.00D+00 WtEn= 0.00D+00
 Coeff-Com: -0.167D+00 0.991D-01 0.107D+01
 Coeff:     -0.167D+00 0.991D-01 0.107D+01
 Gap=     0.488 Goal=   None    Shift=    0.000
 RMSDP=1.16D-07 MaxDP=5.19D-06 DE=-5.77D-11 OVMax= 1.27D-06

 Cycle  11  Pass 1  IDiag  1:
 RMSU=  1.26D-08    CP:  1.00D+00  1.44D+00  1.09D+00
 E= -195.193466733603     Delta-E=       -0.000000000011 Rises=F Damp=F
 DIIS: error= 1.90D-08 at cycle   4 NSaved=   4.
 NSaved= 4 IEnMin= 4 EnMin= -195.193466733603     IErMin= 4 ErrMin= 1.90D-08
 ErrMax= 1.90D-08  0.00D+00 EMaxC= 1.00D-01 BMatC= 6.11D-14 BMatP= 5.72D-12
 IDIUse=1 WtCom= 1.00D+00 WtEn= 0.00D+00
 Coeff-Com:  0.378D-01-0.363D-01-0.257D+00 0.126D+01
 Coeff:      0.378D-01-0.363D-01-0.257D+00 0.126D+01
 Gap=     0.488 Goal=   None    Shift=    0.000
 RMSDP=5.97D-09 MaxDP=1.59D-07 DE=-1.10D-11 OVMax= 1.76D-07

 SCF Done:  E(RHF) =  -195.193466734     A.U. after   11 cycles
            NFock= 11  Conv=0.60D-08     -V/T= 1.9988
 KE= 1.954228327679D+02 PE=-8.357429620609D+02 EE= 2.542788316599D+02
 Leave Link  502 at Mon Oct 10 14:11:52 2022, MaxMem=   104857600 cpu:              24.0 elap:               2.0
 (Enter /usr/local/g16/l601.exe)
 Copying SCF densities to generalized density rwf, IOpCl= 0 IROHF=0.

 **********************************************************************

            Population analysis using the SCF density.

 **********************************************************************

 Orbital symmetries:
       Occupied  (A) (A) (B) (B) (A) (A) (B) (A) (B) (A) (A) (B)
                 (B) (A) (B) (A) (A) (B) (A) (B)
       Virtual   (A) (B) (B) (A) (A) (B) (A) (B) (A) (B) (A) (B)
                 (B) (A) (B) (A) (B) (A) (B) (A) (B) (A) (A) (B)
                 (B) (A) (B) (A) (A) (B) (B) (A) (B) (A) (B) (B)
                 (A) (A) (A) (B) (A) (B) (B) (B) (A) (B) (B) (A)
                 (A) (B) (A) (A) (B) (A) (B) (A) (B) (B) (A) (A)
                 (B) (B) (B) (A) (A) (A) (B) (A) (B) (A) (B) (A)
                 (B) (A) (B) (B) (A) (A) (A) (B) (A) (A) (B) (B)
                 (A) (B) (A) (A) (B) (B) (A) (B) (B) (A) (B) (A)
                 (A) (B) (B) (B) (A) (A) (B) (B) (A) (A) (B) (B)
                 (A) (A) (B) (B) (A) (A) (B) (A) (B) (A) (B) (A)
                 (A) (B) (B) (A) (A) (B) (B) (A) (A) (B) (B) (A)
                 (A) (B) (A) (B) (A) (B) (A) (B) (A) (B) (A) (B)
                 (A) (B) (A) (B) (A) (B) (B) (A) (B) (B) (A) (B)
                 (A) (A) (B) (A)
 The electronic state is 1-A.
 Alpha  occ. eigenvalues --  -11.20645 -11.20612 -11.20593 -11.20482 -11.20474
 Alpha  occ. eigenvalues --   -1.12832  -0.95955  -0.95235  -0.79846  -0.76904
 Alpha  occ. eigenvalues --   -0.65396  -0.65056  -0.57865  -0.56783  -0.48774
 Alpha  occ. eigenvalues --   -0.48753  -0.47309  -0.45776  -0.44562  -0.44271
 Alpha virt. eigenvalues --    0.04565   0.05440   0.05610   0.05771   0.07965
 Alpha virt. eigenvalues --    0.08029   0.08366   0.08465   0.08794   0.11144
 Alpha virt. eigenvalues --    0.15362   0.15720   0.17052   0.17138   0.17475
 Alpha virt. eigenvalues --    0.17821   0.18927   0.19124   0.20261   0.20572
 Alpha virt. eigenvalues --    0.21370   0.21381   0.22476   0.22529   0.22969
 Alpha virt. eigenvalues --    0.23491   0.23984   0.24394   0.26418   0.27018
 Alpha virt. eigenvalues --    0.33441   0.37110   0.37216   0.38449   0.38760
 Alpha virt. eigenvalues --    0.40480   0.41464   0.42833   0.43904   0.44780
 Alpha virt. eigenvalues --    0.46294   0.46642   0.49039   0.50186   0.53608
 Alpha virt. eigenvalues --    0.60414   0.61264   0.61621   0.64750   0.65329
 Alpha virt. eigenvalues --    0.65519   0.70134   0.74949   0.79362   0.87400
 Alpha virt. eigenvalues --    0.87595   0.88123   0.89418   0.89498   0.89705
 Alpha virt. eigenvalues --    0.91314   0.92322   0.92812   0.94805   0.95825
 Alpha virt. eigenvalues --    0.97369   0.99029   0.99980   1.00267   1.04546
 Alpha virt. eigenvalues --    1.04708   1.14513   1.22024   1.22776   1.28421
 Alpha virt. eigenvalues --    1.30714   1.33433   1.39707   1.49466   1.51678
 Alpha virt. eigenvalues --    1.66114   1.67935   1.70088   1.76798   1.79538
 Alpha virt. eigenvalues --    1.80034   1.82293   1.84973   1.85002   1.86329
 Alpha virt. eigenvalues --    1.86663   1.88692   1.91539   1.94121   2.00781
 Alpha virt. eigenvalues --    2.00819   2.05475   2.06268   2.09884   2.12293
 Alpha virt. eigenvalues --    2.12486   2.14073   2.17694   2.20340   2.20942
 Alpha virt. eigenvalues --    2.24018   2.29194   2.32613   2.36732   2.48423
 Alpha virt. eigenvalues --    2.51128   2.53733   2.54010   2.56668   2.62763
 Alpha virt. eigenvalues --    2.62936   2.70192   2.72595   2.72848   2.83922
 Alpha virt. eigenvalues --    2.89020   2.90147   2.91878   2.94969   2.97581
 Alpha virt. eigenvalues --    3.00074   3.02129   3.03030   3.06908   3.08381
 Alpha virt. eigenvalues --    3.10665   3.11538   3.15943   3.16352   3.20634
 Alpha virt. eigenvalues --    3.24114   3.24397   3.24434   3.32769   3.37116
 Alpha virt. eigenvalues --    3.47669   3.50154   3.60713   3.71244   3.85947
 Alpha virt. eigenvalues --    4.11647   4.23444   4.25177   4.29822   4.42041
 Alpha virt. eigenvalues --    4.58727   4.59738   4.69100   4.80425   4.83893
 Alpha virt. eigenvalues --   25.07073  25.08742  25.16848  25.17785  25.20205
          Condensed to atoms (all electrons):
               1          2          3          4          5          6
     1  C    5.445779  -0.315886   0.141675  -0.041434   0.411581   0.527009
     2  C   -0.315886   5.886037  -0.325534   0.339357   0.011959  -0.054468
     3  C    0.141675  -0.325534   6.130058  -0.325534   0.004291   0.035734
     4  C   -0.041434   0.339357  -0.325534   5.886037  -0.031283  -0.114573
     5  H    0.411581   0.011959   0.004291  -0.031283   0.532927  -0.018118
     6  H    0.527009  -0.054468   0.035734  -0.114573  -0.018118   0.549489
     7  H   -0.036532   0.576336  -0.142869   0.054980  -0.001424  -0.013705
     8  H    0.018614   0.428459  -0.064704   0.013601   0.001770  -0.003432
     9  H   -0.008156  -0.063431   0.454844  -0.053015  -0.000505  -0.000159
    10  H    0.031744  -0.053015   0.454844  -0.063431  -0.000062  -0.003017
    11  H   -0.037851   0.013601  -0.064704   0.428459  -0.004418   0.000615
    12  H   -0.098738   0.054980  -0.142869   0.576336  -0.000968   0.002140
    13  C    0.216193  -0.041434   0.141675  -0.315886  -0.048192  -0.028553
    14  H   -0.028553  -0.114573   0.035734  -0.054468   0.006206   0.001898
    15  H   -0.048192  -0.031283   0.004291   0.011959  -0.003095   0.006206
               7          8          9         10         11         12
     1  C   -0.036532   0.018614  -0.008156   0.031744  -0.037851  -0.098738
     2  C    0.576336   0.428459  -0.063431  -0.053015   0.013601   0.054980
     3  C   -0.142869  -0.064704   0.454844   0.454844  -0.064704  -0.142869
     4  C    0.054980   0.013601  -0.053015  -0.063431   0.428459   0.576336
     5  H   -0.001424   0.001770  -0.000505  -0.000062  -0.004418  -0.000968
     6  H   -0.013705  -0.003432  -0.000159  -0.003017   0.000615   0.002140
     7  H    0.546280  -0.007247  -0.015624   0.002406  -0.002594   0.001064
     8  H   -0.007247   0.506232   0.003398  -0.000550   0.002849  -0.002594
     9  H   -0.015624   0.003398   0.564036  -0.034716  -0.000550   0.002406
    10  H    0.002406  -0.000550  -0.034716   0.564036   0.003398  -0.015624
    11  H   -0.002594   0.002849  -0.000550   0.003398   0.506232  -0.007247
    12  H    0.001064  -0.002594   0.002406  -0.015624  -0.007247   0.546280
    13  C   -0.098738  -0.037851   0.031744  -0.008156   0.018614  -0.036532
    14  H    0.002140   0.000615  -0.003017  -0.000159  -0.003432  -0.013705
    15  H   -0.000968  -0.004418  -0.000062  -0.000505   0.001770  -0.001424
              13         14         15
     1  C    0.216193  -0.028553  -0.048192
     2  C   -0.041434  -0.114573  -0.031283
     3  C    0.141675   0.035734   0.004291
     4  C   -0.315886  -0.054468   0.011959
     5  H   -0.048192   0.006206  -0.003095
     6  H   -0.028553   0.001898   0.006206
     7  H   -0.098738   0.002140  -0.000968
     8  H   -0.037851   0.000615  -0.004418
     9  H    0.031744  -0.003017  -0.000062
    10  H   -0.008156  -0.000159  -0.000505
    11  H    0.018614  -0.003432   0.001770
    12  H   -0.036532  -0.013705  -0.001424
    13  C    5.445779   0.527009   0.411581
    14  H    0.527009   0.549489  -0.018118
    15  H    0.411581  -0.018118   0.532927
 Mulliken charges:
               1
     1  C   -0.177253
     2  C   -0.311104
     3  C   -0.336934
     4  C   -0.311104
     5  H    0.139331
     6  H    0.112933
     7  H    0.136495
     8  H    0.145257
     9  H    0.122808
    10  H    0.122808
    11  H    0.145257
    12  H    0.136495
    13  C   -0.177253
    14  H    0.112933
    15  H    0.139331
 Sum of Mulliken charges =   0.00000
 Mulliken charges with hydrogens summed into heavy atoms:
               1
     1  C    0.075011
     2  C   -0.029352
     3  C   -0.091318
     4  C   -0.029352
    13  C    0.075011
 Electronic spatial extent (au):  <R**2>=            397.0864
 Charge=              0.0000 electrons
 Dipole moment (field-independent basis, Debye):
    X=             -0.0000    Y=              0.0000    Z=             -0.0461  Tot=              0.0461
 Quadrupole moment (field-independent basis, Debye-Ang):
   XX=            -32.9489   YY=            -33.8642   ZZ=            -34.1653
   XY=             -0.5715   XZ=             -0.0000   YZ=             -0.0000
 Traceless Quadrupole moment (field-independent basis, Debye-Ang):
   XX=              0.7106   YY=             -0.2047   ZZ=             -0.5059
   XY=             -0.5715   XZ=             -0.0000   YZ=             -0.0000
 Octapole moment (field-independent basis, Debye-Ang**2):
  XXX=              0.0000  YYY=              0.0000  ZZZ=             -0.6688  XYY=             -0.0000
  XXY=              0.0000  XXZ=             -0.1846  XZZ=             -0.0000  YZZ=              0.0000
  YYZ=              0.4120  XYZ=             -0.4479
 Hexadecapole moment (field-independent basis, Debye-Ang**3):
 XXXX=           -118.5282 YYYY=           -196.4125 ZZZZ=           -237.2561 XXXY=            -33.5820
 XXXZ=              0.0000 YYYX=            -30.0863 YYYZ=              0.0000 ZZZX=             -0.0000
 ZZZY=              0.0000 XXYY=            -53.7673 XXZZ=            -57.6657 YYZZ=            -71.5093
 XXYZ=              0.0000 YYXZ=              0.0000 ZZXY=             -9.6857
 N-N= 1.908478308994D+02 E-N=-8.357429635688D+02  KE= 1.954228327679D+02
 Symmetry A    KE= 1.150559773227D+02
 Symmetry B    KE= 8.036685544521D+01
 No NMR shielding tensors so no spin-rotation constants.
 Leave Link  601 at Mon Oct 10 14:11:52 2022, MaxMem=   104857600 cpu:               0.9 elap:               0.1
 (Enter /usr/local/g16/l701.exe)
 ... and contract with generalized density number  0.
 Compute integral first derivatives.
 Leave Link  701 at Mon Oct 10 14:11:52 2022, MaxMem=   104857600 cpu:               1.0 elap:               0.1
 (Enter /usr/local/g16/l702.exe)
 L702 exits ... SP integral derivatives will be done elsewhere.
 Leave Link  702 at Mon Oct 10 14:11:52 2022, MaxMem=   104857600 cpu:               0.1 elap:               0.0
 (Enter /usr/local/g16/l703.exe)
 Integral derivatives from FoFJK, PRISM(SPDF).
 Compute integral first derivatives, UseDBF=F ICtDFT=           0.
 Calling FoFJK, ICntrl=      2127 FMM=F ISym2X=1 I1Cent= 0 IOpClX= 0 NMat=1 NMatS=1 NMatT=0.
 FoFJK:  IHMeth= 1 ICntrl=    2127 DoSepK=F KAlg= 0 I1Cent=           0 FoldK=F
 IRaf=         0 NMat=       1 IRICut=       1 DoRegI=T DoRafI=F ISym2E= 1 IDoP0=0 IntGTp=1.
 FoFCou: FMM=F IPFlag=           0 FMFlag=      100000 FMFlg1=         800
         NFxFlg=           0 DoJE=F BraDBF=F KetDBF=F FulRan=T
         wScrn=  0.000000 ICntrl=      2127 IOpCl=  0 I1Cent=           0 NGrid=           0
         NMat0=    1 NMatS0=      1 NMatT0=    0 NMatD0=    1 NMtDS0=    0 NMtDT0=    0
 Petite list used in FoFCou.
 Leave Link  703 at Mon Oct 10 14:11:52 2022, MaxMem=   104857600 cpu:               5.4 elap:               0.5
 (Enter /usr/local/g16/l716.exe)
 Dipole        =-3.33066907D-16 2.66453526D-15-1.81364676D-02
 ***** Axes restored to original set *****
 -------------------------------------------------------------------
 Center     Atomic                   Forces (Hartrees/Bohr)
 Number     Number              X              Y              Z
 -------------------------------------------------------------------
      1        6          -0.003423860   -0.031430987    0.002021185
      2        6           0.014701087   -0.016495188    0.003050045
      3        6          -0.017012035   -0.003528089   -0.012027568
      4        6           0.002716626    0.020107410    0.009264339
      5        1          -0.002630258   -0.005715640   -0.010654947
      6        1          -0.003925049    0.010398151    0.002724969
      7        1          -0.001247264    0.011861695    0.007763438
      8        1          -0.003495070   -0.005771977    0.009456583
      9        1           0.013383742    0.008504544   -0.006296484
     10        1           0.000481184   -0.005629127    0.016099035
     11        1           0.006079523    0.006307961   -0.007629365
     12        1           0.009934337   -0.010060102   -0.001621646
     13        6          -0.007611826    0.029142320   -0.009823453
     14        1           0.004129816   -0.010355685   -0.002580198
     15        1          -0.012080954    0.002664714    0.000254069
 -------------------------------------------------------------------
 Cartesian Forces:  Max     0.031430987 RMS     0.010826183
 Leave Link  716 at Mon Oct 10 14:11:53 2022, MaxMem=   104857600 cpu:               0.2 elap:               0.0
 (Enter /usr/local/g16/l103.exe)

 GradGradGradGradGradGradGradGradGradGradGradGradGradGradGradGradGradGrad
 Berny optimization.
 FormGI is forming the generalized inverse of G from B-inverse, IUseBI=4.
 Internal  Forces:  Max     0.012237458 RMS     0.005423953
 Search for a local minimum.
 Step number   1 out of a maximum of  100
 All quantities printed in internal units (Hartrees-Bohrs-Radians)
 RMS Force = .54240D-02 SwitMx=.10000D-02 MixMth= 1
 Mixed Optimization -- RFO/linear search
 Second derivative matrix not updated -- first step.
 ITU=  0
     Eigenvalues ---    0.00381   0.00803   0.01969   0.02337   0.04029
     Eigenvalues ---    0.04365   0.04731   0.04757   0.05248   0.05389
     Eigenvalues ---    0.05743   0.05954   0.05987   0.06153   0.06547
     Eigenvalues ---    0.06853   0.06908   0.07237   0.08144   0.08432
     Eigenvalues ---    0.10545   0.10960   0.18626   0.19739   0.25044
     Eigenvalues ---    0.26065   0.26197   0.29451   0.29797   0.37230
     Eigenvalues ---    0.37230   0.37230   0.37230   0.37230   0.37230
     Eigenvalues ---    0.37230   0.37230   0.37230   0.37230
 RFO step:  Lambda=-2.22698296D-02 EMin= 3.80641856D-03
 Linear search not attempted -- first point.
 Iteration  1 RMS(Cart)=  0.07222180 RMS(Int)=  0.00318667
 Iteration  2 RMS(Cart)=  0.00346572 RMS(Int)=  0.00145351
 Iteration  3 RMS(Cart)=  0.00000583 RMS(Int)=  0.00145350
 Iteration  4 RMS(Cart)=  0.00000000 RMS(Int)=  0.00145350
 ITry= 1 IFail=0 DXMaxC= 2.54D-01 DCOld= 1.00D+10 DXMaxT= 3.00D-01 DXLimC= 3.00D+00 Rises=F
 ClnCor:  largest displacement from symmetrization is 1.25D-09 for atom    10.
 Variable       Old X    -DE/DX   Delta X   Delta X   Delta X     New X
                                 (Linear)    (Quad)   (Total)
    R1        2.86162   0.01148   0.00000   0.04376   0.04418   2.90580
    R2        2.02201   0.01224   0.00000   0.03101   0.03101   2.05302
    R3        2.02201   0.01105   0.00000   0.02801   0.02801   2.05001
    R4        2.94405  -0.00358   0.00000  -0.01782  -0.01953   2.92452
    R5        2.94047   0.00316   0.00000   0.00348   0.00392   2.94440
    R6        2.02201   0.01089   0.00000   0.02759   0.02759   2.04960
    R7        2.02201   0.01124   0.00000   0.02848   0.02848   2.05049
    R8        2.86162   0.01148   0.00000   0.04376   0.04418   2.90580
    R9        2.94047   0.00316   0.00000   0.00348   0.00392   2.94440
   R10        2.02201   0.01087   0.00000   0.02754   0.02754   2.04955
   R11        2.02201   0.01087   0.00000   0.02754   0.02754   2.04955
   R12        2.02201   0.01124   0.00000   0.02848   0.02848   2.05049
   R13        2.02201   0.01089   0.00000   0.02759   0.02759   2.04960
   R14        2.02201   0.01105   0.00000   0.02801   0.02801   2.05001
   R15        2.02201   0.01224   0.00000   0.03101   0.03101   2.05302
    A1        1.97757   0.00173   0.00000   0.01922   0.01876   1.99633
    A2        1.96959  -0.00409   0.00000  -0.04162  -0.03916   1.93044
    A3        1.69116   0.00469   0.00000   0.06736   0.06180   1.75296
    A4        1.87687   0.00189   0.00000   0.00514   0.00452   1.88139
    A5        1.99757   0.00065   0.00000   0.01706   0.01725   2.01481
    A6        1.94962  -0.00513   0.00000  -0.06704  -0.06599   1.88364
    A7        1.89702  -0.00308   0.00000  -0.03694  -0.03729   1.85973
    A8        1.97693   0.00264   0.00000   0.02031   0.02227   1.99920
    A9        1.80823  -0.00050   0.00000   0.02450   0.02105   1.82929
   A10        1.89780  -0.00166   0.00000  -0.02482  -0.02531   1.87249
   A11        1.82709   0.00028   0.00000   0.02515   0.02702   1.85411
   A12        2.04656   0.00184   0.00000  -0.00943  -0.00953   2.03704
   A13        1.78704   0.00433   0.00000   0.03620   0.03305   1.82009
   A14        1.85467   0.00256   0.00000   0.05064   0.05352   1.90819
   A15        2.03677  -0.00478   0.00000  -0.06248  -0.06300   1.97377
   A16        2.03677  -0.00478   0.00000  -0.06248  -0.06300   1.97377
   A17        1.85467   0.00256   0.00000   0.05064   0.05352   1.90819
   A18        1.89937  -0.00028   0.00000  -0.01807  -0.01789   1.88148
   A19        1.80823  -0.00050   0.00000   0.02450   0.02105   1.82929
   A20        2.04656   0.00184   0.00000  -0.00943  -0.00953   2.03704
   A21        1.82709   0.00028   0.00000   0.02515   0.02702   1.85411
   A22        1.97693   0.00264   0.00000   0.02031   0.02227   1.99920
   A23        1.89702  -0.00308   0.00000  -0.03694  -0.03729   1.85973
   A24        1.89780  -0.00166   0.00000  -0.02482  -0.02531   1.87249
   A25        1.69116   0.00469   0.00000   0.06736   0.06180   1.75296
   A26        1.94962  -0.00513   0.00000  -0.06704  -0.06599   1.88364
   A27        1.99757   0.00065   0.00000   0.01706   0.01725   2.01481
   A28        1.96959  -0.00409   0.00000  -0.04162  -0.03916   1.93044
   A29        1.97757   0.00173   0.00000   0.01922   0.01876   1.99633
   A30        1.87687   0.00189   0.00000   0.00514   0.00452   1.88139
    D1       -2.93914   0.00294   0.00000   0.06088   0.06136  -2.87778
    D2        1.15214  -0.00134   0.00000   0.02085   0.02123   1.17337
    D3       -0.95217  -0.00055   0.00000   0.03939   0.03924  -0.91293
    D4        1.20571   0.00226   0.00000   0.07157   0.07161   1.27732
    D5       -0.98619  -0.00202   0.00000   0.03154   0.03148  -0.95472
    D6       -3.09050  -0.00122   0.00000   0.05008   0.04949  -3.04101
    D7       -0.83769   0.00705   0.00000   0.12661   0.12878  -0.70891
    D8       -3.02960   0.00277   0.00000   0.08658   0.08865  -2.94095
    D9        1.14928   0.00356   0.00000   0.10513   0.10666   1.25594
   D10        1.02896  -0.00890   0.00000  -0.15742  -0.15923   0.86973
   D11       -1.03015  -0.00490   0.00000  -0.12167  -0.12174  -1.15188
   D12        3.11505  -0.00385   0.00000  -0.08839  -0.08923   3.02582
   D13        3.11505  -0.00385   0.00000  -0.08839  -0.08923   3.02582
   D14        1.05595   0.00015   0.00000  -0.05264  -0.05174   1.00421
   D15       -1.08204   0.00120   0.00000  -0.01936  -0.01923  -1.10127
   D16       -1.03015  -0.00490   0.00000  -0.12167  -0.12174  -1.15188
   D17       -3.08925  -0.00090   0.00000  -0.08591  -0.08424   3.10970
   D18        1.05595   0.00015   0.00000  -0.05264  -0.05174   1.00421
   D19       -1.60730  -0.00319   0.00000  -0.08078  -0.08061  -1.68791
   D20        0.53784  -0.00534   0.00000  -0.11116  -0.11026   0.42758
   D21        2.65899  -0.00686   0.00000  -0.13628  -0.13501   2.52398
   D22        2.56455  -0.00063   0.00000  -0.03650  -0.03678   2.52777
   D23       -1.57350  -0.00279   0.00000  -0.06688  -0.06642  -1.63993
   D24        0.54765  -0.00430   0.00000  -0.09200  -0.09118   0.45647
   D25        0.32877  -0.00430   0.00000  -0.05570  -0.05583   0.27294
   D26        2.47391  -0.00645   0.00000  -0.08607  -0.08548   2.38843
   D27       -1.68813  -0.00797   0.00000  -0.11120  -0.11023  -1.79836
   D28       -0.83769   0.00705   0.00000   0.12661   0.12878  -0.70891
   D29        1.20571   0.00226   0.00000   0.07157   0.07161   1.27732
   D30       -2.93914   0.00294   0.00000   0.06088   0.06136  -2.87778
   D31        1.14928   0.00356   0.00000   0.10513   0.10666   1.25594
   D32       -3.09050  -0.00122   0.00000   0.05008   0.04949  -3.04101
   D33       -0.95217  -0.00055   0.00000   0.03939   0.03924  -0.91293
   D34       -3.02960   0.00277   0.00000   0.08658   0.08865  -2.94095
   D35       -0.98619  -0.00202   0.00000   0.03154   0.03148  -0.95472
   D36        1.15214  -0.00134   0.00000   0.02085   0.02123   1.17337
   D37        0.32877  -0.00430   0.00000  -0.05570  -0.05583   0.27294
   D38        2.56455  -0.00063   0.00000  -0.03650  -0.03678   2.52777
   D39       -1.60730  -0.00319   0.00000  -0.08078  -0.08061  -1.68791
   D40       -1.68813  -0.00797   0.00000  -0.11120  -0.11023  -1.79836
   D41        0.54765  -0.00430   0.00000  -0.09200  -0.09118   0.45647
   D42        2.65899  -0.00686   0.00000  -0.13628  -0.13501   2.52398
   D43        2.47391  -0.00645   0.00000  -0.08607  -0.08548   2.38843
   D44       -1.57350  -0.00279   0.00000  -0.06688  -0.06642  -1.63993
   D45        0.53784  -0.00534   0.00000  -0.11116  -0.11026   0.42758
         Item               Value     Threshold  Converged?
 Maximum Force            0.012237     0.000015     NO 
 RMS     Force            0.005424     0.000010     NO 
 Maximum Displacement     0.254394     0.000060     NO 
 RMS     Displacement     0.071410     0.000040     NO 
 Predicted change in Energy=-1.560759D-02
 Lowest energy point so far.  Saving SCF results.
 GradGradGradGradGradGradGradGradGradGradGradGradGradGradGradGradGradGrad

 Leave Link  103 at Mon Oct 10 14:11:53 2022, MaxMem=   104857600 cpu:               0.3 elap:               0.0
 (Enter /usr/local/g16/l202.exe)
                          Input orientation:                          
 ---------------------------------------------------------------------
 Center     Atomic      Atomic             Coordinates (Angstroms)
 Number     Number       Type             X           Y           Z
 ---------------------------------------------------------------------
      1          6           0       -0.009589   -0.066173   -0.037867
      2          6           0        0.009881   -0.027314    2.332747
      3          6           0        1.503902    0.000590    1.891362
      4          6           0        1.458257   -0.290814    0.361428
      5          1           0       -0.276780   -0.470500   -1.010195
      6          1           0       -0.246223    0.992512   -0.042635
      7          1           0       -0.328297    1.003154    2.344102
      8          1           0       -0.159587   -0.433215    3.324668
      9          1           0        1.929910    0.969710    2.127218
     10          1           0        2.106816   -0.755145    2.382956
     11          1           0        2.208003    0.235429   -0.220235
     12          1           0        1.645491   -1.352586    0.243354
     13          6           0       -0.730584   -0.709932    1.170758
     14          1           0       -0.520454   -1.774114    1.156787
     15          1           0       -1.809568   -0.584785    1.191335
 ---------------------------------------------------------------------
                    Distance matrix (angstroms):
                    1          2          3          4          5
     1  C    0.000000
     2  C    2.371012   0.000000
     3  C    2.452965   1.558107   0.000000
     4  C    1.537684   2.460350   1.558107   0.000000
     5  H    1.086412   3.384353   3.436828   2.219006   0.000000
     6  H    1.084820   2.597706   2.790554   2.171508   1.754283
     7  H    2.630364   1.084600   2.137068   2.965995   3.664098
     8  H    3.385832   1.085072   2.238247   3.379125   4.336606
     9  H    3.085823   2.173203   1.084576   2.220224   4.097199
    10  H    3.288501   2.220224   1.084576   2.173203   4.156444
    11  H    2.245425   3.379125   2.238247   1.085072   2.701207
    12  H    2.115002   2.965995   2.137068   1.084600   2.458574
    13  C    1.547590   1.537684   2.452965   2.371012   2.240496
    14  H    2.145984   2.171508   2.790554   2.597706   2.540590
    15  H    2.240496   2.219006   3.436828   3.384353   2.685002
                    6          7          8          9         10
     6  H    0.000000
     7  H    2.388172   0.000000
     8  H    3.657722   1.747320   0.000000
     9  H    3.073164   2.268844   2.787127   0.000000
    10  H    3.804549   3.003813   2.475286   1.752661   0.000000
    11  H    2.574479   3.687552   4.314962   2.475286   2.787127
    12  H    3.026526   3.722699   3.687552   3.003813   2.268844
    13  C    2.145984   2.115002   2.245425   3.288501   3.085823
    14  H    3.027877   3.026526   2.574479   3.804549   3.073164
    15  H    2.540590   2.458574   2.701207   4.156444   4.097199
                   11         12         13         14         15
    11  H    0.000000
    12  H    1.747320   0.000000
    13  C    3.385832   2.630364   0.000000
    14  H    3.657722   2.388172   1.084820   0.000000
    15  H    4.336606   3.664098   1.086412   1.754283   0.000000
 Stoichiometry    C5H10
 Framework group  C2[C2(C),X(C4H10)]
 Deg. of freedom    20
 Full point group                 C2      NOp   2
 RotChk:  IX=0 Diff= 1.19D-01
 Largest Abelian subgroup         C2      NOp   2
 Largest concise Abelian subgroup C2      NOp   2
                         Standard orientation:                         
 ---------------------------------------------------------------------
 Center     Atomic      Atomic             Coordinates (Angstroms)
 Number     Number       Type             X           Y           Z
 ---------------------------------------------------------------------
      1          6           0        0.000000    0.773795   -1.016799
      2          6           0       -0.637087   -1.052355    0.354695
      3          6           0       -0.000000   -0.000000    1.310921
      4          6           0        0.637087    1.052355    0.354695
      5          1           0        0.513323    1.240487   -1.852855
      6          1           0       -1.032035    1.107662   -1.033260
      7          1           0       -1.685326   -0.790126    0.260950
      8          1           0       -0.591497   -2.074815    0.715083
      9          1           0       -0.770539    0.417402    1.949943
     10          1           0        0.770539   -0.417402    1.949943
     11          1           0        0.591497    2.074815    0.715083
     12          1           0        1.685326    0.790126    0.260950
     13          6           0       -0.000000   -0.773795   -1.016799
     14          1           0        1.032035   -1.107662   -1.033260
     15          1           0       -0.513323   -1.240487   -1.852855
 ---------------------------------------------------------------------
 Rotational constants (GHZ):           6.5756133           6.4849961           3.8390140
 Leave Link  202 at Mon Oct 10 14:11:53 2022, MaxMem=   104857600 cpu:               0.0 elap:               0.0
 (Enter /usr/local/g16/l301.exe)
 Standard basis: 6-311++G(d,p) (5D, 7F)
 Ernie: Thresh=  0.10000D-02 Tol=  0.10000D-05 Strict=F.
 There are    94 symmetry adapted cartesian basis functions of A   symmetry.
 There are    91 symmetry adapted cartesian basis functions of B   symmetry.
 There are    91 symmetry adapted basis functions of A   symmetry.
 There are    89 symmetry adapted basis functions of B   symmetry.
   180 basis functions,   270 primitive gaussians,   185 cartesian basis functions
    20 alpha electrons       20 beta electrons
       nuclear repulsion energy       188.3509993865 Hartrees.
 IExCor=    0 DFT=F Ex=HF Corr=None ExCW=0 ScaHFX=  1.000000
 ScaDFX=  1.000000  1.000000  1.000000  1.000000 ScalE2=  1.000000  1.000000
 IRadAn=      5 IRanWt=     -1 IRanGd=            0 ICorTp=0 IEmpDi=  4
 NAtoms=   15 NActive=   15 NUniq=    8 SFac= 3.52D+00 NAtFMM=   60 NAOKFM=F Big=F
 Integral buffers will be    131072 words long.
 Raffenetti 1 integral format.
 Two-electron integral symmetry is turned on.
 Leave Link  301 at Mon Oct 10 14:11:53 2022, MaxMem=   104857600 cpu:               0.3 elap:               0.0
 (Enter /usr/local/g16/l302.exe)
 NPDir=0 NMtPBC=     1 NCelOv=     1 NCel=       1 NClECP=     1 NCelD=      1
         NCelK=      1 NCelE2=     1 NClLst=     1 CellRange=     0.0.
 One-electron integrals computed using PRISM.
 One-electron integral symmetry used in STVInt
 NBasis=   180 RedAO= T EigKep=  1.13D-05  NBF=    91    89
 NBsUse=   180 1.00D-06 EigRej= -1.00D+00 NBFU=    91    89
 Leave Link  302 at Mon Oct 10 14:11:53 2022, MaxMem=   104857600 cpu:               0.9 elap:               0.1
 (Enter /usr/local/g16/l303.exe)
 DipDrv:  MaxL=1.
 Leave Link  303 at Mon Oct 10 14:11:53 2022, MaxMem=   104857600 cpu:               0.2 elap:               0.0
 (Enter /usr/local/g16/l401.exe)
 Initial guess from the checkpoint file:  "c5h10.chk"
 B after Tr=    -0.000000    0.000000    0.000000
         Rot=    0.999155   -0.000000    0.000000   -0.041103 Ang=  -4.71 deg.
 Guess basis will be translated and rotated to current coordinates.
 JPrj=2 DoOrth=T DoCkMO=T.
 Initial guess orbital symmetries:
       Occupied  (A) (A) (B) (B) (A) (A) (B) (A) (B) (A) (A) (B)
                 (B) (A) (B) (A) (A) (B) (A) (B)
       Virtual   (A) (B) (B) (A) (A) (B) (A) (B) (A) (B) (A) (B)
                 (B) (A) (B) (A) (B) (A) (B) (A) (B) (A) (A) (B)
                 (B) (A) (B) (A) (A) (B) (B) (A) (B) (A) (B) (B)
                 (A) (A) (A) (B) (A) (B) (B) (B) (A) (B) (B) (A)
                 (A) (B) (A) (A) (B) (A) (B) (A) (B) (B) (A) (A)
                 (B) (B) (B) (A) (A) (A) (B) (A) (B) (A) (B) (A)
                 (B) (A) (B) (B) (A) (A) (A) (B) (A) (A) (B) (B)
                 (A) (B) (A) (A) (B) (B) (A) (B) (B) (A) (B) (A)
                 (A) (B) (B) (B) (A) (A) (B) (B) (A) (A) (B) (B)
                 (A) (A) (B) (B) (A) (A) (B) (A) (B) (A) (B) (A)
                 (A) (B) (B) (A) (A) (B) (B) (A) (A) (B) (B) (A)
                 (A) (B) (A) (B) (A) (B) (A) (B) (A) (B) (A) (B)
                 (A) (B) (A) (B) (A) (B) (B) (A) (B) (B) (A) (B)
                 (A) (A) (B) (A)
 The electronic state of the initial guess is 1-A.
 Generating alternative initial guess.
 ExpMin= 3.60D-02 ExpMax= 4.56D+03 ExpMxC= 6.82D+02 IAcc=3 IRadAn=         5 AccDes= 0.00D+00
 Harris functional with IExCor=  205 and IRadAn=       5 diagonalized for initial guess.
 HarFok:  IExCor=  205 AccDes= 0.00D+00 IRadAn=         5 IDoV= 1 UseB2=F ITyADJ=14
 ICtDFT=  3500011 ScaDFX=  1.000000  1.000000  1.000000  1.000000
 FoFCou: FMM=F IPFlag=           0 FMFlag=      100000 FMFlg1=           0
         NFxFlg=           0 DoJE=T BraDBF=F KetDBF=T FulRan=T
         wScrn=  0.000000 ICntrl=       500 IOpCl=  0 I1Cent=   200000004 NGrid=           0
         NMat0=    1 NMatS0=      1 NMatT0=    0 NMatD0=    1 NMtDS0=    0 NMtDT0=    0
 Petite list used in FoFCou.
 Harris En= -195.725966289693    
 Leave Link  401 at Mon Oct 10 14:11:53 2022, MaxMem=   104857600 cpu:               2.7 elap:               0.2
 (Enter /usr/local/g16/l502.exe)
 Integral symmetry usage will be decided dynamically.
 Closed shell SCF:
 Using DIIS extrapolation, IDIIS=  1040.
 NGot=   104857600 LenX=   104784474 LenY=   104749808
 Requested convergence on RMS density matrix=1.00D-08 within 128 cycles.
 Requested convergence on MAX density matrix=1.00D-06.
 Requested convergence on             energy=1.00D-06.
 No special actions if energy rises.
 Fock matrices will be formed incrementally for  20 cycles.

 Cycle   1  Pass 0  IDiag  1:
 FoFJK:  IHMeth= 1 ICntrl=       0 DoSepK=F KAlg= 0 I1Cent=           0 FoldK=F
 IRaf= 990000000 NMat=       1 IRICut=       1 DoRegI=T DoRafI=F ISym2E= 1 IDoP0=0 IntGTp=1.
 FoFCou: FMM=F IPFlag=           0 FMFlag=      100000 FMFlg1=           0
         NFxFlg=           0 DoJE=F BraDBF=F KetDBF=F FulRan=T
         wScrn=  0.000000 ICntrl=         0 IOpCl=  0 I1Cent=           0 NGrid=           0
         NMat0=    1 NMatS0=      1 NMatT0=    0 NMatD0=    1 NMtDS0=    0 NMtDT0=    0
 Petite list used in FoFCou.
 E= -195.197195228070    
 DIIS: error= 5.87D-03 at cycle   1 NSaved=   1.
 NSaved= 1 IEnMin= 1 EnMin= -195.197195228070     IErMin= 1 ErrMin= 5.87D-03
 ErrMax= 5.87D-03  0.00D+00 EMaxC= 1.00D-01 BMatC= 5.57D-03 BMatP= 5.57D-03
 IDIUse=3 WtCom= 9.41D-01 WtEn= 5.87D-02
 Coeff-Com:  0.100D+01
 Coeff-En:   0.100D+01
 Coeff:      0.100D+01
 Gap=     0.500 Goal=   None    Shift=    0.000
 GapD=    0.500 DampG=2.000 DampE=1.000 DampFc=2.0000 IDamp=-1.
 RMSDP=1.34D-03 MaxDP=5.60D-02              OVMax= 2.00D-02

 Cycle   2  Pass 0  IDiag  1:
 RMSU=  1.34D-03    CP:  1.01D+00
 E= -195.205050445714     Delta-E=       -0.007855217645 Rises=F Damp=F
 DIIS: error= 1.74D-03 at cycle   2 NSaved=   2.
 NSaved= 2 IEnMin= 2 EnMin= -195.205050445714     IErMin= 2 ErrMin= 1.74D-03
 ErrMax= 1.74D-03  0.00D+00 EMaxC= 1.00D-01 BMatC= 3.74D-04 BMatP= 5.57D-03
 IDIUse=3 WtCom= 9.83D-01 WtEn= 1.74D-02
 Coeff-Com: -0.217D+00 0.122D+01
 Coeff-En:   0.000D+00 0.100D+01
 Coeff:     -0.214D+00 0.121D+01
 Gap=     0.494 Goal=   None    Shift=    0.000
 RMSDP=3.40D-04 MaxDP=1.27D-02 DE=-7.86D-03 OVMax= 7.20D-03

 Cycle   3  Pass 0  IDiag  1:
 RMSU=  2.00D-04    CP:  1.00D+00  1.20D+00
 E= -195.205793210070     Delta-E=       -0.000742764355 Rises=F Damp=F
 DIIS: error= 8.26D-04 at cycle   3 NSaved=   3.
 NSaved= 3 IEnMin= 3 EnMin= -195.205793210070     IErMin= 3 ErrMin= 8.26D-04
 ErrMax= 8.26D-04  0.00D+00 EMaxC= 1.00D-01 BMatC= 4.08D-05 BMatP= 3.74D-04
 IDIUse=3 WtCom= 9.92D-01 WtEn= 8.26D-03
 Coeff-Com: -0.798D-01 0.253D+00 0.827D+00
 Coeff-En:   0.000D+00 0.000D+00 0.100D+01
 Coeff:     -0.792D-01 0.251D+00 0.829D+00
 Gap=     0.492 Goal=   None    Shift=    0.000
 RMSDP=1.02D-04 MaxDP=3.92D-03 DE=-7.43D-04 OVMax= 1.88D-03

 Cycle   4  Pass 0  IDiag  1:
 RMSU=  7.55D-05    CP:  1.00D+00  1.22D+00  1.21D+00
 E= -195.205847680005     Delta-E=       -0.000054469935 Rises=F Damp=F
 DIIS: error= 2.38D-04 at cycle   4 NSaved=   4.
 NSaved= 4 IEnMin= 4 EnMin= -195.205847680005     IErMin= 4 ErrMin= 2.38D-04
 ErrMax= 2.38D-04  0.00D+00 EMaxC= 1.00D-01 BMatC= 3.07D-06 BMatP= 4.08D-05
 IDIUse=3 WtCom= 9.98D-01 WtEn= 2.38D-03
 Coeff-Com:  0.184D-01-0.125D+00 0.608D-01 0.105D+01
 Coeff-En:   0.000D+00 0.000D+00 0.000D+00 0.100D+01
 Coeff:      0.184D-01-0.124D+00 0.607D-01 0.105D+01
 Gap=     0.492 Goal=   None    Shift=    0.000
 RMSDP=3.20D-05 MaxDP=6.54D-04 DE=-5.45D-05 OVMax= 7.13D-04

 Cycle   5  Pass 0  IDiag  1:
 RMSU=  2.02D-05    CP:  1.00D+00  1.22D+00  1.33D+00  1.10D+00
 E= -195.205853564403     Delta-E=       -0.000005884398 Rises=F Damp=F
 DIIS: error= 2.81D-05 at cycle   5 NSaved=   5.
 NSaved= 5 IEnMin= 5 EnMin= -195.205853564403     IErMin= 5 ErrMin= 2.81D-05
 ErrMax= 2.81D-05  0.00D+00 EMaxC= 1.00D-01 BMatC= 5.58D-08 BMatP= 3.07D-06
 IDIUse=1 WtCom= 1.00D+00 WtEn= 0.00D+00
 Coeff-Com:  0.826D-03 0.164D-02-0.280D-01-0.757D-01 0.110D+01
 Coeff:      0.826D-03 0.164D-02-0.280D-01-0.757D-01 0.110D+01
 Gap=     0.492 Goal=   None    Shift=    0.000
 RMSDP=7.23D-06 MaxDP=1.44D-04 DE=-5.88D-06 OVMax= 1.30D-04

 Initial convergence to 1.0D-05 achieved.  Increase integral accuracy.
 Cycle   6  Pass 1  IDiag  1:
 E= -195.205853700725     Delta-E=       -0.000000136321 Rises=F Damp=F
 DIIS: error= 4.28D-06 at cycle   1 NSaved=   1.
 NSaved= 1 IEnMin= 1 EnMin= -195.205853700725     IErMin= 1 ErrMin= 4.28D-06
 ErrMax= 4.28D-06  0.00D+00 EMaxC= 1.00D-01 BMatC= 3.79D-09 BMatP= 3.79D-09
 IDIUse=1 WtCom= 1.00D+00 WtEn= 0.00D+00
 Coeff-Com:  0.100D+01
 Coeff:      0.100D+01
 Gap=     0.492 Goal=   None    Shift=    0.000
 RMSDP=7.23D-06 MaxDP=1.44D-04 DE=-1.36D-07 OVMax= 2.38D-05

 Cycle   7  Pass 1  IDiag  1:
 RMSU=  1.48D-06    CP:  1.00D+00
 E= -195.205853707562     Delta-E=       -0.000000006837 Rises=F Damp=F
 DIIS: error= 2.93D-06 at cycle   2 NSaved=   2.
 NSaved= 2 IEnMin= 2 EnMin= -195.205853707562     IErMin= 2 ErrMin= 2.93D-06
 ErrMax= 2.93D-06  0.00D+00 EMaxC= 1.00D-01 BMatC= 6.65D-10 BMatP= 3.79D-09
 IDIUse=1 WtCom= 1.00D+00 WtEn= 0.00D+00
 Coeff-Com:  0.131D+00 0.869D+00
 Coeff:      0.131D+00 0.869D+00
 Gap=     0.492 Goal=   None    Shift=    0.000
 RMSDP=4.58D-07 MaxDP=6.72D-06 DE=-6.84D-09 OVMax= 8.87D-06

 Cycle   8  Pass 1  IDiag  1:
 RMSU=  2.79D-07    CP:  1.00D+00  1.25D+00
 E= -195.205853708622     Delta-E=       -0.000000001060 Rises=F Damp=F
 DIIS: error= 9.73D-07 at cycle   3 NSaved=   3.
 NSaved= 3 IEnMin= 3 EnMin= -195.205853708622     IErMin= 3 ErrMin= 9.73D-07
 ErrMax= 9.73D-07  0.00D+00 EMaxC= 1.00D-01 BMatC= 9.65D-11 BMatP= 6.65D-10
 IDIUse=1 WtCom= 1.00D+00 WtEn= 0.00D+00
 Coeff-Com: -0.183D+00-0.624D-01 0.125D+01
 Coeff:     -0.183D+00-0.624D-01 0.125D+01
 Gap=     0.492 Goal=   None    Shift=    0.000
 RMSDP=3.56D-07 MaxDP=6.40D-06 DE=-1.06D-09 OVMax= 7.13D-06

 Cycle   9  Pass 1  IDiag  1:
 RMSU=  9.54D-08    CP:  1.00D+00  1.46D+00  1.49D+00
 E= -195.205853708881     Delta-E=       -0.000000000259 Rises=F Damp=F
 DIIS: error= 1.16D-07 at cycle   4 NSaved=   4.
 NSaved= 4 IEnMin= 4 EnMin= -195.205853708881     IErMin= 4 ErrMin= 1.16D-07
 ErrMax= 1.16D-07  0.00D+00 EMaxC= 1.00D-01 BMatC= 1.33D-12 BMatP= 9.65D-11
 IDIUse=1 WtCom= 1.00D+00 WtEn= 0.00D+00
 Coeff-Com: -0.304D-02-0.184D-01 0.305D-02 0.102D+01
 Coeff:     -0.304D-02-0.184D-01 0.305D-02 0.102D+01
 Gap=     0.492 Goal=   None    Shift=    0.000
 RMSDP=4.31D-08 MaxDP=1.68D-06 DE=-2.59D-10 OVMax= 6.63D-07

 Cycle  10  Pass 1  IDiag  1:
 RMSU=  1.25D-08    CP:  1.00D+00  1.46D+00  1.58D+00  1.28D+00
 E= -195.205853708884     Delta-E=       -0.000000000003 Rises=F Damp=F
 DIIS: error= 4.08D-08 at cycle   5 NSaved=   5.
 NSaved= 5 IEnMin= 5 EnMin= -195.205853708884     IErMin= 5 ErrMin= 4.08D-08
 ErrMax= 4.08D-08  0.00D+00 EMaxC= 1.00D-01 BMatC= 1.74D-13 BMatP= 1.33D-12
 IDIUse=1 WtCom= 1.00D+00 WtEn= 0.00D+00
 Coeff-Com:  0.158D-01 0.381D-02-0.109D+00 0.111D+00 0.979D+00
 Coeff:      0.158D-01 0.381D-02-0.109D+00 0.111D+00 0.979D+00
 Gap=     0.492 Goal=   None    Shift=    0.000
 RMSDP=1.14D-08 MaxDP=4.49D-07 DE=-2.73D-12 OVMax= 1.97D-07

 Cycle  11  Pass 1  IDiag  1:
 RMSU=  4.19D-09    CP:  1.00D+00  1.45D+00  1.59D+00  1.35D+00  1.26D+00
 E= -195.205853708883     Delta-E=        0.000000000001 Rises=F Damp=F
 DIIS: error= 1.20D-08 at cycle   6 NSaved=   6.
 NSaved= 6 IEnMin= 5 EnMin= -195.205853708884     IErMin= 6 ErrMin= 1.20D-08
 ErrMax= 1.20D-08  0.00D+00 EMaxC= 1.00D-01 BMatC= 1.18D-14 BMatP= 1.74D-13
 IDIUse=1 WtCom= 1.00D+00 WtEn= 0.00D+00
 Coeff-Com:  0.339D-02 0.226D-02-0.221D-01-0.576D-01 0.180D+00 0.894D+00
 Coeff:      0.339D-02 0.226D-02-0.221D-01-0.576D-01 0.180D+00 0.894D+00
 Gap=     0.492 Goal=   None    Shift=    0.000
 RMSDP=2.46D-09 MaxDP=7.58D-08 DE= 7.96D-13 OVMax= 4.34D-08

 SCF Done:  E(RHF) =  -195.205853709     A.U. after   11 cycles
            NFock= 11  Conv=0.25D-08     -V/T= 2.0006
 KE= 1.950929937503D+02 PE=-8.304913511665D+02 EE= 2.518415043208D+02
 Leave Link  502 at Mon Oct 10 14:11:55 2022, MaxMem=   104857600 cpu:              21.7 elap:               1.8
 (Enter /usr/local/g16/l701.exe)
 ... and contract with generalized density number  0.
 Compute integral first derivatives.
 Leave Link  701 at Mon Oct 10 14:11:55 2022, MaxMem=   104857600 cpu:               1.0 elap:               0.1
 (Enter /usr/local/g16/l702.exe)
 L702 exits ... SP integral derivatives will be done elsewhere.
 Leave Link  702 at Mon Oct 10 14:11:55 2022, MaxMem=   104857600 cpu:               0.1 elap:               0.0
 (Enter /usr/local/g16/l703.exe)
 Integral derivatives from FoFJK, PRISM(SPDF).
 Compute integral first derivatives, UseDBF=F ICtDFT=           0.
 Calling FoFJK, ICntrl=      2127 FMM=F ISym2X=1 I1Cent= 0 IOpClX= 0 NMat=1 NMatS=1 NMatT=0.
 FoFJK:  IHMeth= 1 ICntrl=    2127 DoSepK=F KAlg= 0 I1Cent=           0 FoldK=F
 IRaf=         0 NMat=       1 IRICut=       1 DoRegI=T DoRafI=F ISym2E= 1 IDoP0=0 IntGTp=1.
 FoFCou: FMM=F IPFlag=           0 FMFlag=      100000 FMFlg1=         800
         NFxFlg=           0 DoJE=F BraDBF=F KetDBF=F FulRan=T
         wScrn=  0.000000 ICntrl=      2127 IOpCl=  0 I1Cent=           0 NGrid=           0
         NMat0=    1 NMatS0=      1 NMatT0=    0 NMatD0=    1 NMtDS0=    0 NMtDT0=    0
 Petite list used in FoFCou.
 Leave Link  703 at Mon Oct 10 14:11:55 2022, MaxMem=   104857600 cpu:               5.0 elap:               0.4
 (Enter /usr/local/g16/l716.exe)
 Dipole        =-2.22044605D-16-3.10862447D-15-8.68974415D-03
 ***** Axes restored to original set *****
 -------------------------------------------------------------------
 Center     Atomic                   Forces (Hartrees/Bohr)
 Number     Number              X              Y              Z
 -------------------------------------------------------------------
      1        6          -0.000996278   -0.002094553    0.008063503
      2        6           0.003721966    0.003751427   -0.005906287
      3        6          -0.006645359   -0.001378167   -0.004698292
      4        6          -0.003301707   -0.003664270    0.006203411
      5        1           0.001060288   -0.002439168    0.002087580
      6        1           0.000011953    0.002955073   -0.003295839
      7        1          -0.002946219    0.001504093    0.005044319
      8        1           0.000304154   -0.003860990   -0.002370249
      9        1           0.002814861   -0.000611787   -0.001754894
     10        1          -0.000938781    0.001000863    0.003081289
     11        1          -0.003120142    0.003276989    0.000379336
     12        1           0.004154444   -0.001253522   -0.004190100
     13        6           0.006531780    0.003242548   -0.004149884
     14        1          -0.002222609   -0.003413536    0.001732897
     15        1           0.001571650    0.002985000   -0.000226791
 -------------------------------------------------------------------
 Cartesian Forces:  Max     0.008063503 RMS     0.003442784
 Leave Link  716 at Mon Oct 10 14:11:56 2022, MaxMem=   104857600 cpu:               0.1 elap:               0.0
 (Enter /usr/local/g16/l103.exe)

 GradGradGradGradGradGradGradGradGradGradGradGradGradGradGradGradGradGrad
 Berny optimization.
 Using GEDIIS/GDIIS optimizer.
 FormGI is forming the generalized inverse of G from B-inverse, IUseBI=4.
 Internal  Forces:  Max     0.006588827 RMS     0.001600311
 Search for a local minimum.
 Step number   2 out of a maximum of  100
 All quantities printed in internal units (Hartrees-Bohrs-Radians)
 RMS Force = .16003D-02 SwitMx=.10000D-02 MixMth= 1
 Mixed Optimization -- RFO/linear search
 Update second derivatives using D2CorX and points    1    2
 DE= -1.24D-02 DEPred=-1.56D-02 R= 7.94D-01
 TightC=F SS=  1.41D+00  RLast= 6.22D-01 DXNew= 5.0454D-01 1.8662D+00
 Trust test= 7.94D-01 RLast= 6.22D-01 DXMaxT set to 5.05D-01
 ITU=  1  0
 Use linear search instead of GDIIS.
     Eigenvalues ---    0.00359   0.00844   0.01831   0.02218   0.03829
     Eigenvalues ---    0.04332   0.04500   0.05099   0.05353   0.05484
     Eigenvalues ---    0.05585   0.06023   0.06448   0.06478   0.06901
     Eigenvalues ---    0.07059   0.07086   0.08134   0.08431   0.08795
     Eigenvalues ---    0.10944   0.11235   0.19406   0.20217   0.25011
     Eigenvalues ---    0.26225   0.26247   0.29480   0.31108   0.34741
     Eigenvalues ---    0.37230   0.37230   0.37230   0.37230   0.37230
     Eigenvalues ---    0.37230   0.37230   0.37230   0.37835
 RFO step:  Lambda=-5.42522168D-03 EMin= 3.59403276D-03
 Quartic linear search produced a step of  0.19606.
 Iteration  1 RMS(Cart)=  0.05138998 RMS(Int)=  0.00183781
 Iteration  2 RMS(Cart)=  0.00186241 RMS(Int)=  0.00042433
 Iteration  3 RMS(Cart)=  0.00000117 RMS(Int)=  0.00042432
 Iteration  4 RMS(Cart)=  0.00000000 RMS(Int)=  0.00042432
 ITry= 1 IFail=0 DXMaxC= 1.84D-01 DCOld= 1.00D+10 DXMaxT= 5.05D-01 DXLimC= 3.00D+00 Rises=F
 ClnCor:  largest displacement from symmetrization is 2.31D-09 for atom    10.
 Variable       Old X    -DE/DX   Delta X   Delta X   Delta X     New X
                                 (Linear)    (Quad)   (Total)
    R1        2.90580  -0.00357   0.00866  -0.01915  -0.01052   2.89528
    R2        2.05302  -0.00122   0.00608  -0.00927  -0.00319   2.04983
    R3        2.05001   0.00290   0.00549   0.00370   0.00919   2.05921
    R4        2.92452  -0.00659  -0.00383  -0.02569  -0.03005   2.89447
    R5        2.94440  -0.00367   0.00077  -0.01685  -0.01578   2.92861
    R6        2.04960   0.00240   0.00541   0.00228   0.00769   2.05729
    R7        2.05049  -0.00077   0.00558  -0.00745  -0.00187   2.04862
    R8        2.90580  -0.00357   0.00866  -0.01915  -0.01052   2.89528
    R9        2.94440  -0.00367   0.00077  -0.01685  -0.01578   2.92861
[...]
 Beta(0;0,0):
               (au)            (10**-30 esu)      (10**-50 SI)
   || (z)    -0.447465D-01     -0.386575D-03     -0.143473D-03
   _|_(z)    -0.149155D-01     -0.128858D-03     -0.478245D-04
   x          0.000000D+00      0.000000D+00      0.000000D+00
   y          0.000000D+00      0.000000D+00      0.000000D+00
   z         -0.223733D+00     -0.193287D-02     -0.717367D-03
   ||         0.447465D-01      0.386575D-03      0.143473D-03
   xxx        0.000000D+00      0.000000D+00      0.000000D+00
   xxy        0.000000D+00      0.000000D+00      0.000000D+00
   yxy        0.000000D+00      0.000000D+00      0.000000D+00
   yyy        0.000000D+00      0.000000D+00      0.000000D+00
   xxz        0.325041D+01      0.280810D-01      0.104220D-01
   yxz        0.827298D+01      0.714721D-01      0.265262D-01
   yyz       -0.106279D+02     -0.918172D-01     -0.340770D-01
   zxz        0.000000D+00      0.000000D+00      0.000000D+00
   zyz        0.000000D+00      0.000000D+00      0.000000D+00
   zzz        0.730297D+01      0.630919D-01      0.234159D-01

 ----------------------------------------------------------------------
 1\1\GINC-AE2-C724\Freq\RHF\6-311++G(d,p)\C5H10\DDI\10-Oct-2022\0\\#P G
 eom=AllCheck Guess=TCheck SCRF=Check GenChk RHF/6-311++G(d,p) Freq\\Ti
 tle Card Required\\0,1\C,0.0037113466,-0.1350344066,-0.0512802385\C,0.
 0193438675,-0.034190728,2.3494138439\C,1.4974271551,-0.0007531303,1.88
 67840462\C,1.47448736,-0.2786094542,0.3629257075\H,-0.2336067692,-0.67
 57952285,-0.9621387875\H,-0.2380301358,0.9127664376,-0.2221745239\H,-0
 .3360437162,0.9768542071,2.5312742559\H,-0.1156375409,-0.587436377,3.2
 730194271\H,1.9482462025,0.9617110026,2.1061238716\H,2.0907657371,-0.7
 466716771,2.4056672973\H,2.1322298583,0.3830504834,-0.1910859667\H,1.8
 076653029,-1.2942603984,0.1653630022\C,-0.7574479599,-0.6438839953,1.1
 745815076\H,-0.7040098235,-1.7307366621,1.2123446722\H,-1.8079241408,-
 0.3701960395,1.1749650088\\Version=ES64L-G16RevA.03\State=1-A\HF=-195.
 2107528\RMSD=5.715e-10\RMSF=3.228e-07\ZeroPoint=0.1487019\Thermal=0.15
 37065\Dipole=-0.0043083,-0.0008935,-0.003046\DipoleDeriv=0.0471986,-0.
 0168758,0.028931,-0.0292944,0.1951423,0.0059625,0.0226852,0.0484369,0.
 1039977,0.061338,-0.0383914,-0.0314549,-0.0540274,0.1852941,-0.0170538
 ,-0.0165097,-0.0516913,0.1130348,0.088167,-0.0004209,0.0447751,0.01047
 92,0.1987311,-0.037994,0.0415777,-0.0225766,0.06755,0.0763951,0.022398
 ,-0.0437956,-0.0066827,0.2070722,0.011652,-0.0456239,-0.0169587,0.0761
 996,0.0134052,-0.019662,-0.0543881,-0.0368916,-0.0013826,-0.1185798,-0
 .0622784,-0.079209,-0.181096,-0.0088156,0.0443877,-0.0064736,0.0619431
 ,-0.1968358,0.0723211,0.0014613,0.0215304,0.0252196,-0.0263591,0.05918
 7,0.0245983,0.079973,-0.1761927,-0.0773853,0.0058021,-0.0211615,0.0212
 618,0.0158054,-0.0115468,0.0260978,-0.0290094,-0.0048699,0.119025,0.04
 76289,0.0755567,-0.1842902,-0.039567,-0.0751188,-0.0309024,-0.1246144,
 -0.1434754,-0.0749563,-0.0133749,-0.0377585,0.0039628,-0.0662179,0.069
 7793,-0.0617811,0.1179637,-0.0619713,0.0940511,-0.078924,0.0549986,-0.
 0508904,-0.0890258,-0.0745723,0.0948851,-0.112355,-0.0307167,0.0897358
 ,0.0895593,0.0550641,-0.0536122,-0.0021297,0.0527245,0.0059619,0.10050
 76,-0.1743165,-0.0702849,0.0046445,-0.0295232,-0.0048438,0.1293402,-0.
 0594502,0.0049752,-0.0149642,0.1857519,-0.000918,0.0018145,0.0019644,0
 .0312465,0.0364151,0.0307741,-0.0040185,-0.0234631,-0.2193166,0.005815
 9,-0.0011934,0.0047231,0.0024697,-0.2359494,0.0167877,0.0025898,0.0604
 356,0.0370858,-0.0013913,0.0027308,-0.0033954,0.0297901\Polar=55.95492
 41,0.810913,49.9264466,-0.0719718,0.6557878,55.9816471\PolarDeriv=-4.6
 022513,0.8858628,2.1388001,-1.7733892,-0.4594578,2.9271444,1.086778,2.
 4362868,-5.9429753,0.1259132,2.2665459,4.7477048,-2.9082524,-0.3958518
 ,1.4738121,3.527395,3.3821935,3.2318652,-4.866472,-0.0665503,2.3061442
 ,1.9412954,0.9684731,1.7476324,0.3923213,2.5922069,-4.2756538,0.371438
 3,-1.7177553,4.2335866,3.4136658,0.858386,-1.0200746,2.5261746,3.05807
 22,-3.1870206,2.8896306,0.5156183,-2.8492576,-3.5504874,0.1814386,0.53
 89729,0.7818115,-3.524014,-2.10478,0.2697377,-2.3475823,1.4431189,-2.5
 342344,0.5591772,-1.7368421,-1.0875255,1.23206,4.680673,2.1457017,-1.2
 603591,-2.5461793,3.6750376,0.7919771,-0.4733199,-2.0388127,-3.2662369
 ,4.1069889,1.2601933,2.0563719,-2.7681884,2.8812734,0.4317789,1.421134
 5,-1.8660228,-2.1296307,-4.7013349,-0.7218724,-0.8805515,-0.5535318,-1
 .7457591,-0.3577854,-1.5216408,-1.0024069,-0.9337972,-1.1920245,-0.850
 7902,-2.4357965,-3.6865151,-1.0910818,-0.3988128,-1.4637077,-2.0142843
 ,-2.4197492,-8.4905158,-0.7389754,1.4366344,-1.4406343,-0.4633453,0.55
 24652,-0.8327186,1.512705,-1.8168527,7.6728122,0.5299791,-2.3943687,1.
 4546904,0.0841109,0.3475049,-1.0131317,-0.8678023,1.3009356,-1.5259269
 ,-1.2196448,1.7695141,-1.9390387,0.6289492,-0.7597489,-0.8889592,1.723
 6581,-2.1441105,6.8626048,-0.7341469,2.274362,1.4444928,-0.1189614,-0.
 5078179,1.0079515,-0.8855935,1.1960207,1.4541584,-0.2663044,-0.6687481
 ,-0.482193,1.5544095,0.206491,-0.8299181,-0.7923649,-0.7943797,-1.3185
 129,0.6818988,2.3107066,-3.7533643,0.8466378,0.2348314,1.4723833,-1.44
 76727,-2.3695051,8.4467286,2.4539865,2.1838154,2.2016061,1.1638092,0.4
 864621,0.4327128,2.6070178,3.1954717,5.8796073,0.9877668,1.9916859,1.5
 061828,0.6476343,0.3963041,1.1017703,1.1181826,1.3320451,0.8565814,3.6
 412696,-1.8728812,1.6208789,2.2092164,-0.8638203,1.3202254,-2.7846899,
 2.4571517,-2.7070368,-1.4613243,1.8490014,-2.0807244,1.775711,-0.97182
 02,1.3519663,2.1095951,-1.7097808,2.5175476,4.416196,1.9988551,1.59353
 15,-2.598099,-0.9108614,1.8127064,2.8683383,2.3895942,2.0439609,-1.678
 2697,-1.8639315,2.2468763,-2.1773431,-0.9131508,-1.1746412,2.5633413,1
 .7367913,-2.9992226,1.583584,-1.6523958,1.6550309,-1.0039754,0.4092706
 ,0.406177,-2.0670693,2.7812114,-6.6493088,0.6120355,-1.8615624,-1.3979
 239,-0.7182769,0.4626221,-1.2147608,1.0118519,-1.292647,-0.6949278,7.3
 259706,-1.7011806,-1.0247166,-0.1735864,-0.2485197,-4.5457246,-3.46700
 26,-0.616688,7.1255486,-0.1609178,-0.499064,-3.0898139,-0.0848701,-0.0
 832279,-0.4342154,-3.3422639,-2.7688262,0.2906586,-1.0164218,-1.249166
 8,0.138275,0.0655064,0.0136388,0.5961655,-1.0668687,-1.3230151,-9.2962
 051,0.0581182,0.2847139,-0.9603335,-0.0338184,-0.0007059,0.1256872,0.1
 061924,-1.0381772,0.0339905,-11.0243975,0.5615341,-0.8187153,0.0704179
 ,-0.010023,-0.689455,2.2465854,-1.4328294,-0.2050251,-0.0116324,0.0866
 728,0.660211,0.0178042,-0.0192172,0.1026672,-1.451568,0.4901977,0.0867
 443\HyperPolar=-8.336245,5.497689,8.3200348,4.3927031,-1.4296407,-4.73
 88637,2.1125426,0.0762507,-9.8779405,-0.640453\Quadrupole=-0.2949211,0
 .5876779,-0.2927568,-0.1140122,0.0063325,-0.1032573\PG=C02 [C2(C1),X(C
 4H10)]\NImag=0\\0.49035028,-0.01696252,0.64254970,0.04879331,0.0392425
 5,0.63665980,0.00524925,0.00421195,0.00490457,0.48140250,0.00418154,0.
 00994764,0.00869266,-0.03640381,0.63292146,-0.00751360,-0.01269581,-0.
 04328953,-0.03482897,-0.03820861,0.63215082,-0.00564118,-0.00798226,-0
 .03062507,-0.18159575,0.00408587,0.02729208,0.56072222,-0.00227266,0.0
 0369756,0.00478823,-0.00205589,-0.09260010,0.00025474,0.00394606,0.654
 73249,-0.01448181,-0.00460253,-0.02110997,0.02987283,0.00223178,-0.092
 93590,0.07835575,-0.01666766,0.51099961,-0.19441592,0.01455905,-0.0253
 6221,-0.00390851,0.00408644,0.02915858,-0.08439773,0.00202335,-0.00352
 621,0.57543007,0.01515877,-0.09694233,0.00497639,-0.00080521,0.0011656
 0,0.00060880,-0.00146022,-0.09708477,-0.02286744,0.01592074,0.65058031
 ,-0.03349684,0.00123039,-0.09367113,0.01547554,0.00122953,-0.01962535,
 -0.00172519,-0.01713061,-0.18564925,-0.08057583,-0.02448900,0.52046440
 ,-0.07043220,-0.02997812,-0.04857445,-0.00317534,-0.00218691,0.0035495
 2,-0.00631294,0.00108377,-0.00115022,-0.00303203,-0.01819587,-0.029929
 66,0.07136382,-0.03129529,-0.13146143,-0.12009942,-0.00056548,-0.00032
 775,0.00262838,0.00061305,0.00080603,0.00165910,0.00155720,0.00160276,
 0.00482701,0.03249583,0.13655523,-0.04918818,-0.11607122,-0.24913425,0
 .00204533,0.00314239,-0.00409479,-0.00004332,0.00052943,-0.00054815,0.
 00095621,-0.00306888,-0.00382465,0.05506866,0.12876566,0.26979672,-0.0
 6842989,0.05621827,-0.01103780,0.00017756,0.00014931,-0.00078675,0.000
 17853,-0.00012863,0.00056725,-0.00870008,0.03746319,-0.00334336,0.0019
 7467,-0.00774311,0.00192765,0.07590315,0.05665399,-0.30655952,0.037509
 44,0.00028603,0.00009353,-0.00048365,0.00027999,-0.00009364,0.00033715
 ,-0.00014153,-0.00173671,-0.00039289,0.00367830,-0.01788277,0.00200512
 ,-0.06192835,0.33286187,-0.01090273,0.03580601,-0.06760565,-0.00001329
 ,0.00034675,0.00134715,0.00019416,-0.00007178,0.00036065,-0.00021604,0
 .00755444,-0.00064202,0.00727519,-0.03008578,0.00633090,0.00865243,-0.
 04358700,0.06622917,-0.00009762,0.00015177,0.00046629,-0.08276231,0.08
 324600,0.01516975,-0.01357935,0.03258928,0.00404164,-0.00208778,-0.000
 17310,-0.00038609,-0.00005471,0.00002446,0.00013977,0.00043538,0.00014
 871,0.00009932,0.09408933,0.00031488,-0.00023144,0.00048825,0.08369047
 ,-0.29488761,-0.03951885,-0.00307691,0.00263094,0.00133737,-0.00012372
 ,0.00023544,-0.00005755,-0.00011436,0.00039745,-0.00026978,0.00032518,
 0.00075905,-0.00038356,-0.08793579,0.31899414,0.00015231,-0.00039451,0
 .00119282,0.01497216,-0.03773171,-0.06802007,0.00211473,-0.00884709,-0
 .00069509,0.00043647,0.00050053,-0.00034615,-0.00021622,0.00043717,0.0
 0007426,-0.00001421,0.00046568,-0.00061940,-0.01427179,0.04487129,0.06
 613172,-0.00330991,-0.00212992,-0.00290841,-0.06084911,-0.01679375,0.0
 2704275,-0.00161154,-0.01740596,0.02845835,-0.00472005,-0.00113035,0.0
 0146416,0.00105444,0.00022197,-0.00086334,-0.00015781,-0.00011234,0.00
 020042,0.00177887,0.00588738,-0.01063231,0.06294199,-0.00119610,-0.001
 12997,-0.00282906,-0.01762822,-0.13465867,0.12554377,0.00087248,0.0001
 0415,-0.00208282,0.00013629,-0.00014201,-0.00129394,0.00040947,0.00045
 119,-0.00074163,0.00003461,0.00042446,-0.00036708,-0.00382921,-0.01822
 600,0.03041567,0.01808641,0.14043112,-0.00244078,-0.00337096,-0.003706
 98,0.02807808,0.12159416,-0.25542859,-0.00182154,0.00391178,-0.0048538
 6,0.00025726,0.00008205,-0.00046512,0.00093608,0.00054626,-0.00141935,
 -0.00015415,0.00017322,0.00026329,-0.00136848,-0.00214864,0.00690954,-
 0.03022320,-0.13400061,0.27594800,-0.00030874,-0.00011489,0.00050489,-
 0.01351833,-0.03051842,-0.00725792,-0.10149890,-0.09968727,-0.02401172
 ,0.00012654,0.00180119,0.00256323,0.00001839,0.00012554,-0.00021877,-0
 .00011566,0.00018213,-0.00025725,0.00215075,0.00032237,-0.00038819,-0.
 00273328,-0.00043448,0.00070324,0.11008224,0.00013648,-0.00043515,-0.0
 0017835,0.00361757,0.00164683,0.00057868,-0.10202532,-0.28027898,-0.04
 765433,-0.00039092,-0.00358707,0.00047477,-0.00024822,0.00005950,-0.00
 011913,-0.00018908,0.00011428,0.00000405,-0.00009249,0.00262354,0.0000
 8820,-0.00049565,0.00037433,-0.00031443,0.10917382,0.29976404,-0.00006
 348,-0.00085937,-0.00159303,0.00551808,0.01085544,0.00312461,-0.023484
 65,-0.04595597,-0.06764967,-0.01214496,-0.03380386,-0.00520092,-0.0007
 1472,0.00039292,-0.00020955,-0.00050932,0.00030241,-0.00005848,-0.0007
 5539,0.00001273,0.00130468,0.00089983,0.00012981,-0.00044922,0.0220273
 5,0.05310436,0.07117984,-0.00082845,-0.00079650,0.00030051,-0.01531784
 ,0.02591218,-0.01486751,-0.13801686,0.10199131,-0.07152363,0.00175873,
 -0.00056464,0.00180592,-0.00009923,0.00007795,-0.00023770,0.00010723,-
 0.00001277,0.00008698,-0.00563115,-0.00053414,0.00102675,0.00247345,-0
 .00027416,0.00031007,0.01006424,-0.01033887,0.00834893,0.14663823,-0.0
 0050721,0.00008140,-0.00143489,-0.00193631,0.00175702,-0.00196823,0.10
 427075,-0.19409937,0.09369873,-0.00559184,0.00529191,-0.00629266,-0.00
 023698,0.00003489,-0.00010664,-0.00031955,0.00008637,-0.00013010,0.000
 04189,0.00128502,-0.00021537,0.00036850,0.00155771,-0.00074320,0.01829
 059,-0.02414903,0.01650626,-0.11415478,0.20556051,0.00127681,-0.001597
 64,-0.00541386,0.00865260,-0.01017963,0.00489936,-0.07203351,0.0919174
 5,-0.11731132,-0.01950867,0.02460264,-0.01579752,-0.00166161,0.0000424
 5,-0.00035155,0.00005483,0.00018651,0.00005651,0.00296899,-0.00030115,
 -0.00012495,-0.00061027,-0.00051485,0.00139100,0.00465668,-0.00450059,
 0.00452777,0.07571888,-0.09901475,0.12882738,-0.01615228,-0.02213765,0
 .01951285,-0.00072562,-0.00008613,-0.00096886,0.00215588,0.00159466,-0
 .00325135,-0.15650207,-0.10210381,0.08378139,-0.00074045,-0.00025277,-
 0.00071533,0.00222464,0.00079030,0.00037283,-0.00004909,0.00011778,0.0
 0011662,0.00012554,0.00008594,0.00021091,0.00111411,0.00057987,0.00049
 902,-0.00027448,0.00021896,-0.00028335,0.16789102,0.00489594,0.0032009
 2,-0.00352118,0.00095842,0.00007325,-0.00180295,0.00640900,0.00503082,
 -0.00529709,-0.10562658,-0.16648672,0.08912054,-0.00040909,-0.00006263
 ,0.00008208,-0.00036500,0.00147333,-0.00049025,0.00015091,-0.00001404,
 -0.00003874,0.00035977,-0.00000549,-0.00012267,0.00042191,0.00180437,0
 .00040663,-0.00017235,0.00047114,-0.00029076,0.11364762,0.17555375,-0.
 00738567,-0.00873288,0.00794838,-0.00043991,0.00009006,-0.00467480,0.0
 2025465,0.02137122,-0.01354795,0.08402419,0.08690720,-0.12794759,0.000
 38116,-0.00024891,-0.00019813,0.00117733,-0.00026445,0.00061826,0.0006
 1401,-0.00017391,-0.00025497,0.00136419,-0.00007710,-0.00035607,-0.000
 18647,-0.00049742,0.00250369,0.00001008,-0.00031347,-0.00300483,-0.092
 18364,-0.09467637,0.13587632,-0.01033469,0.03651818,0.00465579,-0.0003
 5783,-0.00059717,0.00001607,0.00058643,-0.00273740,-0.00256454,-0.0832
 6172,0.07435025,0.01787342,0.00231287,-0.00043005,-0.00022551,-0.00728
 790,0.00044449,-0.00122346,0.00009294,-0.00005779,-0.00007486,-0.00005
 208,0.00000948,0.00014936,0.00041213,-0.00025567,-0.00100868,0.0012069
 2,-0.00043208,0.00013824,0.00851221,-0.02165905,-0.00472885,0.08721236
 ,0.00026998,-0.00304690,0.00024378,-0.00025943,0.00004495,-0.00032374,
 0.00085104,-0.00449004,0.00066736,0.07586921,-0.29833303,-0.04441457,0
 .00044558,0.00128032,0.00077438,0.00069562,0.00178480,0.00038183,0.000
 00440,-0.00001198,0.00007337,0.00023956,-0.00001799,-0.00018373,0.0003
 9489,0.00115606,-0.00135532,-0.00057875,0.00240682,-0.00030065,0.00652
 564,-0.02208092,-0.00338155,-0.08457293,0.32068474,-0.00503561,0.01272
 949,0.00099949,-0.00092005,-0.00033426,-0.00188560,0.00877186,-0.03451
 961,-0.00773989,0.01749507,-0.04342459,-0.06407523,0.00067633,0.000484
 31,0.00050980,-0.00331059,0.00027580,0.00036996,0.00019908,0.00008621,
 0.00002006,0.00058897,-0.00004033,-0.00024804,0.00091170,-0.00133569,-
 0.00603927,-0.00030762,0.00000321,0.00246523,-0.00658274,0.01766248,0.
 00403113,-0.01303497,0.04851367,0.07131808,-0.11556304,-0.01909130,0.0
 4259902,-0.11483828,-0.02276186,-0.04014150,-0.03097874,-0.01774610,-0
 .01956958,-0.03620703,-0.01789921,0.02479298,0.00649152,0.00451198,-0.
 00879469,0.00409711,0.00224873,-0.00675829,0.00573559,0.00399107,0.009
 00170,0.00439005,0.00330840,0.00540751,-0.00503685,0.00036067,0.001321
 61,-0.00153070,-0.00000686,0.00086825,-0.00673093,0.00098012,-0.002714
 70,0.00120484,-0.00013759,0.00013009,0.66737551,-0.01892098,-0.1105716
 1,0.03315703,-0.02066372,-0.11553400,-0.03671823,-0.00406130,0.0023914
 8,0.00082955,-0.00066805,0.00613933,-0.00336752,0.01276090,0.00725323,
 -0.01556251,-0.02254993,-0.01311539,0.02966234,-0.02205484,-0.01511370
 ,-0.02812696,0.01248931,0.00916937,0.01538966,0.00079723,0.00077291,0.
 00015548,0.00059774,-0.00026453,0.00001687,0.00189438,0.00030308,-0.00
 008097,0.00066919,-0.00027399,-0.00022428,-0.02681460,0.63084949,0.053
 72473,0.03534394,-0.16362202,-0.04871567,-0.03834484,-0.15465710,-0.00
 576573,0.00271908,0.00553368,0.00731141,-0.00034087,0.00197506,0.01620
 905,0.01180676,-0.01812376,0.00347280,0.00105083,-0.00344125,-0.003682
 38,-0.00121092,-0.00300398,-0.01625422,-0.01507323,-0.01856240,0.00225
 471,0.00020104,-0.00189697,0.00019626,-0.00016454,-0.00054170,-0.00224
 134,-0.00065053,-0.00171901,-0.00037269,-0.00019662,-0.00006710,-0.005
 54748,-0.00494866,0.47133478,0.00157933,-0.01755766,-0.00013443,0.0023
 4220,-0.01765443,0.00135121,0.00059602,0.00031616,0.00004857,0.0009375
 7,-0.00016841,-0.00012570,0.00081070,0.00066384,-0.00066955,-0.0012403
 9,-0.00168036,0.00272632,-0.00117841,-0.00193583,-0.00250038,0.0010899
 4,0.00063903,0.00078403,0.00008906,0.00023157,0.00002118,-0.00018422,-
 0.00006246,-0.00016334,0.00019658,0.00027496,-0.00002776,-0.00034609,0
 .00003327,0.00038582,-0.06385130,0.01658097,-0.00062819,0.05970389,0.0
 0187865,-0.01204851,0.00041026,0.00227328,-0.01314156,0.00066892,-0.00
 013156,-0.00010470,-0.00012259,0.00039750,0.00001807,-0.00037918,0.000
 10223,0.00123499,0.00066279,-0.00163599,0.00089436,0.00219938,-0.00214
 694,0.00043887,-0.00228412,0.00017828,0.00160343,-0.00061233,-0.000172
 70,0.00016828,0.00006912,-0.00051450,-0.00000099,-0.00010830,-0.000235
 87,0.00043344,0.00006012,-0.00070450,0.00055518,0.00006000,0.01484074,
 -0.32364830,0.00943482,-0.01595166,0.35262861,-0.00287894,0.03436559,-
 0.00199035,0.00340915,-0.03228114,-0.00027945,0.00043314,0.00023104,-0
 .00004579,-0.00110526,-0.00021577,0.00066260,-0.00141773,-0.00059277,0
 .00138289,0.00469120,0.00257550,-0.00490823,-0.00445192,-0.00304395,-0
 .00439360,0.00138480,0.00059585,0.00162285,0.00001763,0.00024783,-0.00
 000723,-0.00039170,0.00007574,0.00012535,-0.00018938,-0.00032995,-0.00
 010008,0.00054048,-0.00038387,0.00036595,-0.00038061,0.00929313,-0.055
 09547,0.00040301,-0.01041695,0.06266170,-0.01166495,0.00509159,-0.0030
 9488,-0.01212257,0.00534114,0.00278515,-0.00060609,-0.00151067,-0.0012
 6534,-0.00101998,-0.00219330,0.00182602,-0.00017949,-0.00000512,0.0008
 1876,0.00083345,-0.00083732,-0.00023657,0.00115755,-0.00087058,0.00027
 722,-0.00042051,-0.00021994,-0.00082839,-0.00084570,-0.00006375,0.0000
 4519,-0.00036589,0.00005739,-0.00007454,-0.00104508,0.00013341,-0.0001
 5860,0.00009962,0.00021951,0.00003266,-0.31455774,0.06994370,0.0000387
 3,-0.00054487,0.00182303,-0.00006387,0.34128225,-0.01233548,0.00294965
 ,-0.00144567,-0.01471964,0.00349941,0.00143678,-0.00259067,-0.00064189
 ,-0.00146658,-0.00200714,-0.00072075,0.00093567,0.00039347,0.00005896,
 -0.00002208,-0.00002654,0.00089599,-0.00083925,-0.00012506,0.00112031,
 0.00078656,0.00023678,0.00006437,-0.00020055,-0.00058189,-0.00003392,0
 .00003936,-0.00063773,-0.00001888,0.00004240,-0.00063890,0.00030570,0.
 00001844,-0.00054493,0.00034197,0.00006359,0.07421582,-0.07835737,0.00
 037373,0.03627100,-0.00903118,-0.00012026,-0.07690909,0.07956762,0.029
 44049,-0.01039305,0.00433628,-0.02801046,0.00889742,0.00336924,-0.0019
 1736,-0.00253026,-0.00480709,0.00279997,0.00297836,-0.00585714,-0.0004
 3137,-0.00056314,-0.00019041,-0.00138732,-0.00015367,0.00169914,0.0012
 1722,0.00031245,0.00182513,0.00008827,0.00033555,-0.00064506,-0.001319
 11,-0.00009899,0.00046373,-0.00047623,0.00009989,0.00025312,0.00192236
 ,-0.00005125,0.00082566,-0.00013981,-0.00011434,-0.00002458,-0.0002143
 3,0.00052507,-0.05811277,-0.00147080,0.00035807,-0.00000115,-0.0001015
 3,0.00039788,0.05686590\\-0.00000057,-0.00000039,-0.00000041,0.0000004
 7,0.00000017,0.00000011,0.00000048,0.00000010,0.00000034,0.00000029,-0
 .00000002,0.00000043,0.00000010,0.00000045,0.00000034,0.00000005,-0.00
 000026,0.00000002,-0.00000018,-0.00000022,-0.00000015,0.00000018,0.000
 00038,-0.00000058,-0.00000020,-0.00000022,0.00000038,0.00000023,0.0000
 0023,-0.00000036,-0.00000038,-0.00000042,0.00000044,-0.00000025,0.0000
 0013,-0.00000016,-0.00000065,0.00000014,-0.00000045,-0.00000004,0.0000
 0027,0.,0.00000046,-0.00000033,0.00000006\\\@


 IF THERE IS ONE WAY BETTER THAN ANOTHER IT IS THE WAY OF NATURE.

                          -- ARISTOTLE
 Job cpu time:       0 days  0 hours  2 minutes 32.7 seconds.
 Elapsed time:       0 days  0 hours  0 minutes 13.0 seconds.
 File lengths (MBytes):  RWF=     33 Int=      0 D2E=      0 Chk=      4 Scr=      1
 Normal termination of Gaussian 16 at Mon Oct 10 14:12:26 2022.
