[Molden Format]
[Molpro variables]
_NUMVAR=  1088.000000000000    
_AVOGAD= 0.6022140760000000E+24
_BOLTZ= 0.1380649000000000E-22
_CLIGHTSI=  299792458.0000000    
_JOULE= 0.4359744722207100E-17
_JPCAL=  4.184000000000000    
_PLANCK= 0.6626070150000000E-33
_BOHR= 0.5291772109030000E-10
_ECHARG= 0.1602176634000000E-18
_ENULL= 0.8854187812800001E-11
_MU= 0.1660539066600000E-26
_EMASS= 0.9109383701500001E-30
_AMU2AU=  1822.888486217313    
_CLIGHT=  29979245800.00000    
_EV= 0.3674932217565494E-01
_KJOULE= 0.3808798847133432E-03
_KJOULE/MOL= 0.3808798847133432E-03
_CM= 0.4556335252912009E-05
_CM-1= 0.4556335252912009E-05
_DEB2SI= 0.3335640951981520E-29
_KCAL= 0.1593601437640628E-02
_KCAL/MOL= 0.1593601437640628E-02
_KELVIN= 0.3166811563455608E-05
_HERTZ= 0.1519829846057038E-15
_HZ= 0.1519829846057038E-15
_TOA= 0.5291772109030000    
_TOANG= 0.5291772109030000    
_TORAD= 0.1745329251994330E-01
_TOCM=  219474.6313631965    
_TODEBYE=  2.541746473194078    
_TOE= 0.4803204712570263E-09
_TOEV=  27.21138624598803    
_TOHERTZ=  6579683920501656.    
_TOHZ=  6579683920501656.    
_TOK=  315775.0248040668    
_TOKCAL=  627.5094740630558    
_TOKELVIN=  315775.0248040668    
_TOKJ=  2625.499639479825    
_TOKJOULE=  2625.499639479825    
_TOKG= 0.1660539066600000E-26
_ANG=  1.889726124625770    
_ANGSTROM=  1.889726124625770    
_RPAREF=  0.000000000000000    
_RPADISS=  0.000000000000000    
_IGNORE_UNDEF=  2.000000000000000    
_STRICTCHECK=  0.000000000000000    
!SEWARD=  0.000000000000000    
!MULTI=  0.000000000000000    
!DFMULTI=  0.000000000000000    
!NUMHESS=  0.000000000000000    
_SEW_ONEEL=  0.000000000000000    
_CPPDONE=FALSE
_DKROLL_DONE=  0.000000000000000    
_FNUC_DONE=  0.000000000000000    
_FOCKDONE=TRUE
_GRADONE=FALSE
_HESSDONE=TRUE
_INTDONE=TRUE
_SCFDONE=TRUE
_MODUL_BLOCK=FALSE
_MODUL_SLATER=TRUE
_MODUL_MRCC=FALSE
_MODUL_NBO6=FALSE
_MODUL_NECI=FALSE
_MODUL_AIMS=TRUE
_MODUL_HDF5=FALSE
_MODUL_GECCO=FALSE
_ISWINDOWS=FALSE
_MRCC_EXEC=
_FITC_AO_SAVED=FALSE
_FITC_MO_SAVED=FALSE
_LSTYP=SEWARD
_INTYP=INTS
_GEOMTYP=XYZ
_GRADTYP=ALASKA
_DIRECT=FALSE
_DKHO= -1.000000000000000    
_FNUC=  0.000000000000000    
_SYNCM=  0.000000000000000    
_BASIS=6-311G(D,P)
_ZCENTRE=MASS
_ZORIENT=  1.000000000000000    
_NELEC=  34.00000000000000    
!SPIN=  0.000000000000000    
_OPTCONV= 0.2494337866908775E-01
_QSDSTEP=  0.000000000000000    
_QSDIRC=  0.000000000000000    
_PROGRAM=FREQ
_CPUSTEP=  10.21000000000000    
_SYSSTEP= 0.2799999999999998    
_WALLSTEP=  10.49000000000000    
!DFSCF=  0.000000000000000    
!SCSGRD=  0.000000000000000    
_NCEN=  8.000000000000000    
_CPUTOT=  43.85000000000000    
_DFTEXFAC=  1.000000000000000    
_DMX= -1.077139642768028    
_DMY=-0.1531936846724414E-02
_DMZ= -2.435191004177218    
_DMX_SCF= -1.077139642768028    
_DMY_SCF=-0.1531936846724414E-02
_DMZ_SCF= -2.435191004177218    
_FREQUENCIES= 0.6140983515867581E-04
_HOMO=  17.10000000000000    
_EHOMO=-0.4669885717448954    
_LUMO=  18.10000000000000    
_ELUMO= 0.1155106540559696    
_ENERGY= -264.8658598744828    
_ENERGY_METHOD=HF
_ENERGY_BASIS=6-311G(D,P)
_GEOMETRY_METHOD=HF
_GEOMETRY_BASIS=6-311G(D,P)
_ENUC=  119.2053320792831    
_GRADENERG= -264.8658591239881    
_GRADEXFAC=  9999.000000000000    
_GRADMETHOD=  1.000000000000000    
_NMRMETHOD=  0.000000000000000    
_NMRMAGNET=  0.000000000000000    
_VIRIAL=-0.2213425667498978E-03
!GRID_FREEZE= -1.000000000000000    
!NEESE_INDEX=  0.000000000000000    
_ITERATIONS=  13.00000000000000    
_LASTNELEC=  34.00000000000000    
_LASTSPIN=  0.000000000000000    
_LASTSYM=  1.000000000000000    
_MPP_PROG=  1.000000000000000    
_MSNSTATES=  0.000000000000000    
_RS2PHASE=  0.000000000000000    
_NPROC_MPP=  6.000000000000000    
_NPROC_SMP=  6.000000000000000    
_NUMSTEP=  0.000000000000000    
_OPTCONVMX= 0.2268939532380050E-01
_OPTCONVRMS= 0.5879210734205275E-02
_OPTGRAD= 0.3323067962551133E-03
_OPTGRADMX= 0.1571673152811128E-03
_OPTGRADRMS= 0.7832546302212236E-04
!GMAXLAST= 0.1571673152811128E-03
!DMAXLAST= 0.2268939532380050E-01
!DELAST= 0.6901903816469712E-05
_OPTSTEP=  29.00000000000000    
_ORBITAL=  2100.200000000000    
_PI=  3.141592653589793    
_SEIG_MIN= 0.9599966824445774E-02
_SEWPROP=TRUE
_STATUS=  1.000000000000000    
_SYSTOT=  3.140000000000000    
_VERSION=  2024001.000000000    
_WALLTOT=  47.33000000000000    
_ZPE= 0.6194681354617264E-01
_DATE=01-Oct-24
_LASTORB=0
_OUTPUT=/home/lme/decomposing-vibrations/test_calculations/hydrogen_bonded_clusters/CH2O2_H2O_cluster/formic_acid_water.out
_PGROUP=C1
_TIME=21:24:40
_LIBMOL=/usr/local/molpro/molpro_2024.1.0_sockets/lib/
_VIGRDC=  0.000000000000000    
!VIBCNT=  0.000000000000000    
!SURFREC=  0.000000000000000    
!XSURFREC=  0.000000000000000    
!XPOLYREC=  0.000000000000000    
!ROTREC=  0.000000000000000    
!POLYREC=  0.000000000000000    
!DIPREC=  0.000000000000000    
!DIP4DREC=  0.000000000000000    
!DIPROT=  0.000000000000000    
!DIP4DROT=  0.000000000000000    
!PTREC=  0.000000000000000    
!PT4DREC=  0.000000000000000    
!VSCFREC=  0.000000000000000    
!VCIREC=  0.000000000000000    
!PVCIREC=  0.000000000000000    
!VMP2REC=  0.000000000000000    
!VMCSCFREC=  0.000000000000000    
!VMRCIREC=  0.000000000000000    
!VIBSTATEREC=  0.000000000000000    
!VIBSTATECNT=  0.000000000000000    
!VIBINFO=  0.000000000000000    
!GAREC=  0.000000000000000    
!SCFORB=  21002.00000000000    
!DEFCORE=  4.000000000000000    
!SCORE=  0.000000000000000    
!NEWMOL=  0.000000000000000    
!NEWSYM=  0.000000000000000    
_SLFILES=slscratch
_NGSSTO=  9.000000000000000    
_SIN=SIN
_COS=COS
_TAN=TAN
_ACOS=ACOS
_ASIN=ASIN
_ATAN=ATAN
_COSH=COSH
_SINH=SINH
_TANH=TANH
_ABS=ABS
_MOD=MOD
_ERF=ERF
_REFC=REFC
_ERFC=ERFC
_HYPOT=HYPOT
_J0=J0
_J1=J1
_JN=JN
_GAMMA=GAMMA
_LGAMMA=LGAMMA
_Y0=Y0
_Y1=Y1
_YN=YN
_EXP=EXP
_LOG=LOG
_LOG10=LOG10
_SQRT=SQRT
_INT=INT
_NINT=NINT
_MAX=MAX
_MIN=MIN
_COSMO=  0.000000000000000    
_COSMOIT=  0.000000000000000    
_COSMOES=  0.000000000000000    
_COSMOEDS=  0.000000000000000    
_COSMOEC=  0.000000000000000    
_COSMOEDCORR=  0.000000000000000    
_FEPSI=  1.000000000000000    
_SL_IsMM=  0.000000000000000    
_SL_NSYM=  1.000000000000000    
_SL_System_BitSw=  0.000000000000000    
_SL_Unique_atoms=  0.000000000000000    
_SL_GRAD=  0.000000000000000    
_SL_MAXUPD_Hess=  5.000000000000000    
_SL_N_PRINT_COD=  5.000000000000000    
_SL_PRINT_CODES=  0.000000000000000    
_SL_BasType=  0.000000000000000    
_SL_Energy_Pred=  0.000000000000000    
_SL_New_Coords=  0.000000000000000    
_SL_Total_Nuclea=  0.000000000000000    
_SL_Highest_Mltp=  0.000000000000000    
_SL_Ref_Geom=  0.000000000000000    
_SL_Symmetry_ope=  1.000000000000000    
_SL_agrad=  0.000000000000000    
_SL_GrdMax=  0.000000000000000    
_SL_GrdNorm=  0.000000000000000    
_SL_GrdRMS=  0.000000000000000    
_SL_Hss_Q=  0.000000000000000    
_SL_Hss_X=  0.000000000000000    
_SL_BMxOld=  0.000000000000000    
_SL_KtB=  0.000000000000000    
_SL_TROld=  0.000000000000000    
_SL_No_of_Intern=  0.000000000000000    
_SL_Hess=  0.000000000000000    
_SL_K=  0.000000000000000    
!LATTICE= -1.000000000000000    
!NEWLATTICE=  0.000000000000000    
!LATGRAD_VAR=FALSE
!SEW_LATTICE=  1.000000000000000    
!AIC_ONEEL=  0.000000000000000    
!LOCAL=  0.000000000000000    
!SAVEDOM= -1.000000000000000    
!RESTDOM= -1.000000000000000    
!SAVEDOM_HF= -1.000000000000000    
!RESTDOM_HF= -1.000000000000000    
!HESSREC=  5300.200000000000    
!FREQREC=  5400.200000000000    
!NMODREC=  5450.200000000000    
!GTASKS=  0.000000000000000    
!HTASKS=  0.000000000000000    
!SAVEDOM_EOM= -1.000000000000000    
!RESTDOM_EOM= -1.000000000000000    
!GRADSTATE= -1.000000000000000    
!DEBUG=  0.000000000000000    
!CFIT_CPHF=  0.000000000000000    
!RDOMAUX_CPHF=  0.000000000000000    
!THRAO_CPHF= 0.1000000000000000E-11
!THRMO_CPHF= 0.1000000000000000E-11
!THROV_CPHF= 0.1000000000000000E-13
!THRSW_CPHF= 0.1000000000000000E-11
!THRPROD_CPHF= 0.1000000000000000E-11
!THRAOPR_CPHF= 0.1000000000000000E-11
!CFIT_SCFGRD=  0.000000000000000    
!RDOMAUX_SCFGRD=  0.000000000000000    
!THRAO_SCFGRD= 0.1000000000000000E-11
!THRMO_SCFGRD= 0.1000000000000000E-11
!THROV_SCFGRD= 0.1000000000000000E-13
!THRSW_SCFGRD= 0.1000000000000000E-11
!THRPROD_SCFGRD= 0.1000000000000000E-11
!THRAOPR_SCFGRD= 0.1000000000000000E-11
!LOCFIT_SCF=  0.000000000000000    
!LOCFIT_MP2=  0.000000000000000    
_RIDOM=  0.000000000000000    
!CC2_METHOD=  0.000000000000000    
_BASIS2006=FALSE
_SVDDEL= -1.000000000000000    
_SVDDELA= -1.000000000000000    
_SVDDELP= -1.000000000000000    
_SVDDELF= -1.000000000000000    
_SVDDELS= -1.000000000000000    
_SVDDEL_ABS= -1.000000000000000    
_SVDDELA_ABS= -1.000000000000000    
_SVDDELP_ABS= -1.000000000000000    
_SVDDELF_ABS= -1.000000000000000    
_SVDDELS_ABS= -1.000000000000000    
_MAXBASIS=  0.000000000000000    
!OPT_CONICAL=  0.000000000000000    
!CLEARSP_JGRID=  0.000000000000000    
_GRDHYBR=  0.000000000000000    
_STATEGRAD=  1.000000000000000    
_4EXT_NDISKS=  1.000000000000000    
!EMBEDFLAG=  1.000000000000000    
!EMBED=FALSE
!EMBED_F12=FALSE
!EMBEDNUC=  0.000000000000000    
_EMBEDENERGY=  0.000000000000000    
!EMBED_DFC=FALSE
!NUM_VOIDS=  0.000000000000000    
_IBODY=  0.000000000000000    
_EMBE_CORR=  0.000000000000000    
!EMBED_PROJ=FALSE
!EMB_PROJ_ZMU=  1000000.000000000    
!CORRECTION_HF=  0.000000000000000    
!EMBED_AORB=  0.000000000000000    
!EMBED_NACORR=  0.000000000000000    
!EMBED_MP2=FALSE
!EMBED_TRUNC_PERTURBATION=FALSE
!EMBED_FROZEN=  0.000000000000000    
!EMBED_ACTIVE=  0.000000000000000    
_CHANGE_BASIS=FALSE
_RESTORE_BASIS=FALSE
_FIX_EMBED_GUESS=FALSE
_EMBED_SCF=FALSE
_NEOBAS=FALSE
_NEOOVE=FALSE
_PRINEO=FALSE
_HUZINAGA_T=FALSE
_HUZINAGA_F=FALSE
_HUZINAGA=FALSE
_HUZINAGA_CORRECT=FALSE
!FASTLATGRAD=  1.000000000000000    
!FASTVLAMBDA= -1.000000000000000    
!IFORCE= -1.000000000000000    
!USESYM= -1.000000000000000    
_SINDEX=  0.000000000000000    
_AVDOM_OSV=  0.000000000000000    
_AVDOM_PNO=  0.000000000000000    
_AVDOM_PNOCC=  0.000000000000000    
_AVDOM_TNO=  0.000000000000000    
_AVDOM_TNOIT=  0.000000000000000    
_AVDOM_PAO=  0.000000000000000    
_AVDOM_LMO=  0.000000000000000    
_CC2OSV_FLAG=  0.000000000000000    
_EOMCCSD_CONV=FALSE
_TMADC2_FLAG=FALSE
_PROPADC2_FLAG=FALSE
_LEN_VirQ=  0.000000000000000    
_GRDCC2LR_FLAG=FALSE
_GRDADC2_FLAG=FALSE
_RO_VGLOBAL=  0.000000000000000    
_OPT=FALSE
_FREQ=FALSE
_HESS=FALSE
_CMRCC_callName=EMPTY
_CMRCC_callCount=  0.000000000000000    
_GECCO_CIROOT=  1.000000000000000    
_SYM_CATION=  1.000000000000000    
_MON_A=FALSE
_MON_B=FALSE
_MAXGEOM=  100.0000000000000    
!MAXGEOM=  100.0000000000000    
_NCORE=  0.000000000000000    
_NLARGECORE=  0.000000000000000    
GX1=-0.8762872958231106E-01
GY1= 0.2666164678111484E-04
GZ1=  2.352565795144215    
GX2=-0.8931967062051677    
GY2=-0.1308699627212147E-02
GZ2=  1.866410547788646    
GX3= 0.5800034313269384    
GY3=-0.1277585011699424E-04
GZ3=  1.686508269909658    
GX4= 0.1969673811282203    
GY4=-0.1111760101753181E-03
GZ4= -1.266860441873632    
GX5= 0.3087596010710921    
GY5=-0.7571604088929309E-03
GZ5= -2.351754456005007    
GX6=  1.106767542283901    
GY6= 0.6892243765411316E-04
GZ6=-0.5286433717007162    
GX7= -1.061591066061038    
GY7= 0.1355484847687619E-03
GZ7=-0.8500893290043413    
GX8= -1.667075369684615    
GY8=-0.2658510240875276E-03
GZ8= -1.572307564225719    
OX1=-0.1655942995594603    
OY1= 0.5038321044781728E-04
OZ1=  4.445705042985020    
HX2= -1.687897150145594    
HY2=-0.2473083874830802E-02
HZ2=  3.527004771433298    
HX3=  1.096047636551104    
HY3=-0.2414285773038722E-04
HZ3=  3.187038737045691    
CX4= 0.3722144058171189    
CY4=-0.2100922108599592E-03
CZ4= -2.394019273263549    
HX5= 0.5834710843730737    
HY5=-0.1430825805217302E-02
HZ5= -4.444171834217728    
OX6=  2.091487538541745    
OY6= 0.1302445310078685E-03
OZ6=-0.9989911901130949    
OX7= -2.006116371204866    
OY7= 0.2561495128209677E-03
OZ7= -1.606436013285095    
HX8= -3.150315877813182    
HY8=-0.5023856254767158E-03
HZ8= -2.971230680064052    
[Atoms] Angs
O     1    8        -0.0876287296        0.0000266616        2.3525657951
H     2    1        -0.8931967062       -0.0013086996        1.8664105478
H     3    1         0.5800034313       -0.0000127759        1.6865082699
C     4    6         0.1969673811       -0.0001111760       -1.2668604419
H     5    1         0.3087596011       -0.0007571604       -2.3517544560
O     6    8         1.1067675423        0.0000689224       -0.5286433717
O     7    8        -1.0615910661        0.0001355485       -0.8500893290
H     8    1        -1.6670753697       -0.0002658510       -1.5723075642
[GTO]
   1 0
 s    6  1.00
  0.8588500000D+04  0.1895150083D-02
  0.1297230000D+04  0.1438590063D-01
  0.2992960000D+03  0.7073200310D-01
  0.8737710000D+02  0.2400010105D+00
  0.2567890000D+02  0.5947970261D+00
  0.3740040000D+01  0.2808020123D+00
 s    3  1.00
  0.4211750000D+02  0.1138890124D+00
  0.9628370000D+01  0.9208111006D+00
  0.2853320000D+01 -0.3274470358D-02
 s    1  1.00
  0.9056610000D+00  0.1000000000D+01
 s    1  1.00
  0.2556110000D+00  0.1000000000D+01
 p    3  1.00
  0.4211750000D+02  0.3651139738D-01
  0.9628370000D+01  0.2371529830D+00
  0.2853320000D+01  0.8197019412D+00
 p    1  1.00
  0.9056610000D+00  0.1000000000D+01
 p    1  1.00
  0.2556110000D+00  0.1000000000D+01
 d    1  1.00
  0.1292000000D+01  0.1000000000D+01
  
   2 0
 s    3  1.00
  0.3386500000D+02  0.2549381454D-01
  0.5094790000D+01  0.1903731086D+00
  0.1158790000D+01  0.8521614860D+00
 s    1  1.00
  0.3258400000D+00  0.1000000000D+01
 s    1  1.00
  0.1027410000D+00  0.1000000000D+01
 p    1  1.00
  0.7500000000D+00  0.1000000000D+01
  
   3 0
 s    3  1.00
  0.3386500000D+02  0.2549381454D-01
  0.5094790000D+01  0.1903731086D+00
  0.1158790000D+01  0.8521614860D+00
 s    1  1.00
  0.3258400000D+00  0.1000000000D+01
 s    1  1.00
  0.1027410000D+00  0.1000000000D+01
 p    1  1.00
  0.7500000000D+00  0.1000000000D+01
  
   4 0
 s    6  1.00
  0.4563240000D+04  0.1966650249D-02
  0.6820240000D+03  0.1523060193D-01
  0.1549730000D+03  0.7612690966D-01
  0.4445530000D+02  0.2608010331D+00
  0.1302900000D+02  0.6164620782D+00
  0.1827730000D+01  0.2210060280D+00
 s    3  1.00
  0.2096420000D+02  0.1146600807D+00
  0.4803310000D+01  0.9199996477D+00
  0.1459330000D+01 -0.3030682134D-02
 s    1  1.00
  0.4834560000D+00  0.1000000000D+01
 s    1  1.00
  0.1455850000D+00  0.1000000000D+01
 p    3  1.00
  0.2096420000D+02  0.4024869267D-01
  0.4803310000D+01  0.2375939567D+00
  0.1459330000D+01  0.8158538515D+00
 p    1  1.00
  0.4834560000D+00  0.1000000000D+01
 p    1  1.00
  0.1455850000D+00  0.1000000000D+01
 d    1  1.00
  0.6260000000D+00  0.1000000000D+01
  
   5 0
 s    3  1.00
  0.3386500000D+02  0.2549381454D-01
  0.5094790000D+01  0.1903731086D+00
  0.1158790000D+01  0.8521614860D+00
 s    1  1.00
  0.3258400000D+00  0.1000000000D+01
 s    1  1.00
  0.1027410000D+00  0.1000000000D+01
 p    1  1.00
  0.7500000000D+00  0.1000000000D+01
  
   6 0
 s    6  1.00
  0.8588500000D+04  0.1895150083D-02
  0.1297230000D+04  0.1438590063D-01
  0.2992960000D+03  0.7073200310D-01
  0.8737710000D+02  0.2400010105D+00
  0.2567890000D+02  0.5947970261D+00
  0.3740040000D+01  0.2808020123D+00
 s    3  1.00
  0.4211750000D+02  0.1138890124D+00
  0.9628370000D+01  0.9208111006D+00
  0.2853320000D+01 -0.3274470358D-02
 s    1  1.00
  0.9056610000D+00  0.1000000000D+01
 s    1  1.00
  0.2556110000D+00  0.1000000000D+01
 p    3  1.00
  0.4211750000D+02  0.3651139738D-01
  0.9628370000D+01  0.2371529830D+00
  0.2853320000D+01  0.8197019412D+00
 p    1  1.00
  0.9056610000D+00  0.1000000000D+01
 p    1  1.00
  0.2556110000D+00  0.1000000000D+01
 d    1  1.00
  0.1292000000D+01  0.1000000000D+01
  
   7 0
 s    6  1.00
  0.8588500000D+04  0.1895150083D-02
  0.1297230000D+04  0.1438590063D-01
  0.2992960000D+03  0.7073200310D-01
  0.8737710000D+02  0.2400010105D+00
  0.2567890000D+02  0.5947970261D+00
  0.3740040000D+01  0.2808020123D+00
 s    3  1.00
  0.4211750000D+02  0.1138890124D+00
  0.9628370000D+01  0.9208111006D+00
  0.2853320000D+01 -0.3274470358D-02
 s    1  1.00
  0.9056610000D+00  0.1000000000D+01
 s    1  1.00
  0.2556110000D+00  0.1000000000D+01
 p    3  1.00
  0.4211750000D+02  0.3651139738D-01
  0.9628370000D+01  0.2371529830D+00
  0.2853320000D+01  0.8197019412D+00
 p    1  1.00
  0.9056610000D+00  0.1000000000D+01
 p    1  1.00
  0.2556110000D+00  0.1000000000D+01
 d    1  1.00
  0.1292000000D+01  0.1000000000D+01
  
   8 0
 s    3  1.00
  0.3386500000D+02  0.2549381454D-01
  0.5094790000D+01  0.1903731086D+00
  0.1158790000D+01  0.8521614860D+00
 s    1  1.00
  0.3258400000D+00  0.1000000000D+01
 s    1  1.00
  0.1027410000D+00  0.1000000000D+01
 p    1  1.00
  0.7500000000D+00  0.1000000000D+01


[MO]
 Sym=      1.1
 Ene=     -20.6363
 Spin= Alpha
 Occup=    2.000000
1 -0.000001991011284
2 -0.000003200517484
3 0.000015880581582
4 -0.000075240113182
5 0.000001280049264
6 0.000000002636896
7 -0.000001139910564
8 -0.000000906387001
9 -0.000000003245951
10 0.000006206710084
11 0.000038506811399
12 0.000000064445212
13 0.000021311666440
14 -0.000004398469796
15 0.000005168528939
16 -0.000000770059143
17 -0.000000012827296
18 -0.000005831483444
19 -0.000000010508332
20 0.000000747457443
21 0.000030010598398
22 0.000069665501918
23 0.000019487682084
24 0.000000041698366
25 0.000008046529476
26 0.000001149386570
27 0.000006877070843
28 -0.000030763394413
29 0.000001350602843
30 -0.000000003704902
31 0.000003113427781
32 -0.000002484360759
33 -0.000039771341037
34 0.000175376375997
35 0.000465348359923
36 -0.000052356488144
37 0.000000018041256
38 0.000024317462273
39 -0.000214363549465
40 0.000000047644321
41 0.000095623367412
42 -0.000240098403934
43 0.000000190358935
44 0.000363214285675
45 0.000140629471284
46 -0.000043360326494
47 -0.000097269144790
48 -0.000000009880365
49 -0.000005573004199
50 -0.000000043050426
51 -0.000004623836184
52 0.000117501398213
53 0.000046131353500
54 0.000036313228430
55 0.000000026474491
56 0.000038874945554
57 -0.000127488327640
58 -0.000109780123411
59 0.000019902191634
60 -0.000216379802687
61 0.000008703725815
62 -0.000000006353027
63 -0.000011657971195
64 0.000000564584191
65 0.000000019287592
66 0.000037394257003
67 0.000117327548312
68 -0.000000046792588
69 -0.000060982034280
70 0.000004561597036
71 -0.000001968288018
72 -0.000002593309018
73 -0.000000005821203
74 -0.000009824655726
75 0.000000002148617
76 0.55142592305630
77 0.47165630556605
78 0.005724022170185
79 -0.000939718484720
80 0.000437954901964
81 -0.000000911754166
82 -0.001616512953118
83 -0.000100972125665
84 0.000000312266081
85 0.000580766251555
86 -0.000252932021143
87 -0.000000047299928
88 -0.000125260837659
89 -0.000081275433605
90 0.000064366595753
91 0.000016908837852
92 -0.000000022979006
93 -0.000019124344261
94 -0.000000028611166
95 0.000205384316537
96 0.000058847421869
97 0.000048996075387
98 0.000085177277934
99 0.000000001448998
100 0.000008859804794
 Sym=      2.1
 Ene=     -20.5725
 Spin= Alpha
 Occup=    2.000000
1 -0.000013022596606
2 -0.000013918861484
3 0.000026978490522
4 -0.000125511119370
5 -0.000004925748173
6 -0.000000003397158
7 0.000000630085372
8 0.000015183692484
9 0.000000013814781
10 0.000002822857367
11 -0.000044585117714
12 0.000000010443874
13 0.000059844094388
14 -0.000001456244000
15 0.000007223026199
16 -0.000005766782199
17 -0.000000011020599
18 0.000002171656221
19 -0.000000008226437
20 0.000002704903586
21 0.000032256340674
22 -0.000035445491024
23 0.000009779544533
24 0.000000014731868
25 0.000003099398619
26 -0.000016403233127
27 0.000088000942750
28 0.000072680843671
29 -0.000012396169019
30 0.000000001371408
31 -0.000002970112737
32 0.000005741103649
33 -0.000071815167678
34 0.000312428168587
35 0.000454996764551
36 0.000083484307400
37 0.000000019911475
38 0.000070876567739
39 0.000239425258918
40 0.000000066307746
41 0.000226173494655
42 0.000297449418255
43 0.000000123672863
44 0.000369638177363
45 0.000047502599826
46 -0.000046070228836
47 -0.000001432370990
48 0.000000040530250
49 0.000138825367576
50 -0.000000005525184
51 -0.000009604473588
52 0.000081430604706
53 0.000041823058481
54 -0.000032573876550
55 0.000000019725394
56 0.000016183366617
57 0.55144049411567
58 0.47168173519411
59 0.005572138104168
60 -0.001010103684822
61 -0.001419392792112
62 -0.000000203915511
63 -0.001033568720872
64 0.000447673168652
65 0.000000051256771
66 0.000332246911605
67 0.000083143619740
68 0.000000011079892
69 0.000020711216033
70 0.000077218819101
71 -0.000168483008221
72 0.000091264189120
73 -0.000000035446148
74 -0.000020145391141
75 0.000000142932299
76 0.000130665991469
77 0.000111995288414
78 0.000005388839759
79 -0.000045333113463
80 -0.000006458905016
81 -0.000000002580853
82 -0.000007800979246
83 0.000004649564375
84 0.000000011946776
85 0.000023557073372
86 -0.000059103062246
87 -0.000000040343641
88 -0.000106898212585
89 0.000004266137557
90 -0.000004738091940
91 0.000000471954382
92 -0.000000001865796
93 -0.000005823588644
94 0.000000002360389
95 -0.000004982606940
96 -0.000008835317615
97 0.000038716939764
98 0.000022669751333
99 -0.000000004035118
100 -0.000008140344322
 Sym=      3.1
 Ene=     -20.5057
 Spin= Alpha
 Occup=    2.000000
1 0.55142708607508
2 0.47167281427523
3 0.005605801788602
4 -0.000539633328537
5 -0.000239715167149
6 -0.000002150556550
7 -0.001705183145765
8 0.000094738994580
9 0.000000749307268
10 0.000586718553167
11 -0.000038715685136
12 -0.000000122593884
13 -0.000076853608003
14 -0.000096683476265
15 0.000110834796006
16 -0.000014151319741
17 -0.000000238643721
18 0.000003082498917
19 -0.000000154753325
20 0.000214792165204
21 0.000068158832485
22 0.000114963743627
23 0.000075556643239
24 0.000000085129330
25 0.000007216863230
26 0.000208458788729
27 0.000074557308133
28 0.000187678053290
29 -0.000070874960714
30 -0.000000041790204
31 0.000021007245091
32 -0.000000162047908
33 0.000000548893115
34 -0.000009638626552
35 -0.000106756833349
36 0.000001595096948
37 0.000000004331081
38 -0.000007006987121
39 -0.000006538694023
40 -0.000000015801314
41 0.000016438939728
42 -0.000016437414639
43 -0.000000026414636
44 -0.000083926159614
45 -0.000017450897433
46 0.000007090231233
47 0.000010360666200
48 0.000000000633894
49 -0.000004857574227
50 0.000000001817508
51 0.000005011647003
52 -0.000020238623757
53 -0.000016321057287
54 0.000002993649727
55 -0.000000002170714
56 -0.000001791740510
57 0.000013348997705
58 0.000011266783837
59 -0.000002315865120
60 0.000066348102585
61 -0.000000806251469
62 0.000000002700631
63 -0.000007291590276
64 0.000004008033613
65 -0.000000010326776
66 0.000020432745639
67 -0.000032013596815
68 0.000000014910477
69 -0.000079503302532
70 -0.000000770983897
71 0.000000088793272
72 0.000000682190625
73 -0.000000001030288
74 0.000005622254260
75 0.000000001109625
76 0.000002044432403
77 0.000001366124206
78 -0.000002715779040
79 0.000063953219918
80 0.000000696467986
81 0.000000003610663
82 -0.000004318774955
83 -0.000003144802055
84 -0.000000012953480
85 0.000011610368968
86 0.000012153546588
87 0.000000012691003
88 -0.000055390796581
89 0.000000610980217
90 -0.000003260060800
91 0.000002649080583
92 0.000000001303179
93 0.000001359803486
94 0.000000004443127
95 0.000000426237228
96 -0.000040676391341
97 -0.000007710291759
98 -0.000015444891652
99 -0.000000011819399
100 -0.000001875068611
 Sym=      4.1
 Ene=     -11.4073
 Spin= Alpha
 Occup=    2.000000
1 0.000000181056370
2 0.000001831998836
3 -0.000018910624629
4 0.000078785595341
5 0.000002850150412
6 0.000000000704454
7 0.000003051945480
8 -0.000012636634149
9 -0.000000005313720
10 -0.000010774191980
11 0.000023008130423
12 -0.000000006595298
13 -0.000002476908442
14 -0.000000021087045
15 -0.000001409971281
16 0.000001431058325
17 0.000000003818735
18 0.000000959512691
19 0.000000004275576
20 -0.000000330964625
21 -0.000004469118786
22 -0.000007113312842
23 -0.000011243273167
24 -0.000000014477654
25 0.000000451492070
26 -0.000002622880400
27 -0.000004306365672
28 -0.000094224180512
29 0.000005413222429
30 -0.000000002650108
31 0.000004600236708
32 0.56344180323379
33 0.46661905634129
34 0.003833119175470
35 0.000254328720552
36 -0.000869513288168
37 0.000000507733744
38 0.000506968091991
39 0.000946156381878
40 -0.000000306210850
41 -0.000045602854438
42 0.000012395918625
43 0.000000245279117
44 0.000427962608925
45 0.000184405028567
46 -0.000478727803461
47 0.000294322774894
48 0.000000100220871
49 0.000453625370270
50 0.000000373010587
51 0.000353839340118
52 -0.000095814889723
53 0.000316938007996
54 0.000019304156100
55 -0.000000003372489
56 -0.000020044722375
57 -0.000240419669152
58 -0.000346456898623
59 0.000650814629570
60 -0.000810024923314
61 -0.000270618948845
62 -0.000000069379116
63 -0.000226935130920
64 -0.000392368825589
65 -0.000000081032030
66 -0.000317878057435
67 0.000361615064741
68 0.000000029803410
69 0.000277223618882
70 0.000085410180452
71 -0.000066725028910
72 -0.000018685151542
73 0.000000079652086
74 0.000231186439379
75 -0.000000009741033
76 -0.000102862760300
77 -0.000186395942267
78 0.000507527739648
79 -0.000060853670438
80 0.000141146060869
81 -0.000000047501483
82 -0.000076566267078
83 0.000621367800219
84 -0.000000073574986
85 -0.000127737151607
86 -0.000084477463529
87 -0.000000032957716
88 -0.000041766589836
89 0.000194104077139
90 -0.000066050745415
91 -0.000128053331724
92 -0.000000070767577
93 -0.000125254022674
94 -0.000000031951352
95 0.000021589591861
96 0.000001875129330
97 -0.000046676076971
98 0.000041984052256
99 0.000000020112459
100 0.000033933299949
 Sym=      5.1
 Ene=      -1.5064
 Spin= Alpha
 Occup=    2.000000
1 -0.000909869667924
2 -0.001490968550787
3 0.003765667195114
4 0.004336290669031
5 0.000071679872483
6 -0.000000260688777
7 -0.000648195665909
8 -0.000136294340591
9 -0.000000878376805
10 -0.000818541238269
11 0.000519573722275
12 0.000000022853279
13 -0.001621726155742
14 0.000114347825930
15 -0.000212023406244
16 0.000097675580314
17 0.000000386340955
18 -0.000033946897037
19 0.000000215455875
20 0.000798723953567
21 0.000974221100025
22 0.000557783257458
23 0.000082404502525
24 0.000000223376353
25 -0.000412690548425
26 0.001512117316390
27 0.000586265425553
28 -0.000723776772882
29 -0.000158285976010
30 -0.000000059794061
31 -0.000171378379672
32 -0.063466847495657
33 -0.10271228473023
34 0.26439171969183
35 0.024788572978880
36 -0.003582207643424
37 0.000013758884895
38 0.042423754816713
39 -0.023833722520227
40 0.000023720168012
41 0.061495590226096
42 0.001530631579065
43 -0.000008430603633
44 -0.020813669092900
45 0.028212122747187
46 -0.018218869450682
47 -0.009993253296505
48 -0.000002354086741
49 0.004175411969678
50 0.000002003220155
51 0.019774244695243
52 0.021039805847523
53 -0.009351269712098
54 -0.000563830300642
55 0.000004345549050
56 0.008166682373834
57 -0.058107636140355
58 -0.096893556836900
59 0.27118054429381
60 0.19162246393382
61 -0.035114274174958
62 -0.000005863996045
63 -0.022839551630729
64 -0.057554972054450
65 -0.000008985988166
66 -0.036183122941815
67 -0.025631679413408
68 -0.000003294109844
69 -0.010613220958554
70 0.007291177373998
71 -0.005830601388087
72 -0.001460575985912
73 0.000002457834101
74 0.010130933826772
75 0.000000817049616
76 -0.086554029000221
77 -0.14457525192583
78 0.41089130588035
79 0.28881596663098
80 0.023009630492763
81 -0.000016195789119
82 -0.025758900129144
83 0.039648167006733
84 -0.000027314586272
85 -0.044228081431692
86 0.022213718151595
87 -0.000012703596401
88 -0.015322693954167
89 0.007604282638617
90 -0.007074588604801
91 -0.000529694033816
92 -0.000000857537823
93 -0.000861955208452
94 0.000004260741541
95 0.064235862176774
96 0.048668825912494
97 -0.004701101617453
98 0.014670271519763
99 0.000007613086338
100 0.013533781382884
 Sym=      6.1
 Ene=      -1.4115
 Spin= Alpha
 Occup=    2.000000
1 -0.001245692026526
2 -0.002062415745224
3 0.005577676944976
4 0.005118597303420
5 0.000265922542490
6 -0.000000412743646
7 -0.000633011481778
8 0.000360537359909
9 -0.000000495285649
10 -0.001071577052613
11 0.000249399453696
12 -0.000000907119784
13 -0.001010685387617
14 0.000003714225843
15 -0.000156741529638
16 0.000153027303794
17 0.000000104713269
18 -0.000105482217683
19 0.000000190314304
20 0.000815131163443
21 0.000024828444015
22 -0.000396816352316
23 0.000233734215182
24 0.000000096803259
25 0.000288708607803
26 0.002258836687349
27 0.001079174783291
28 0.000074249756659
29 0.000028768592970
30 -0.000000031968954
31 0.000142722713038
32 -0.027865392201992
33 -0.044108298049562
34 0.11654868622096
35 0.022110727351282
36 0.099285240745940
37 0.000007019733749
38 0.042575925912519
39 0.14367612886090
40 0.000007975777545
41 0.055242081993661
42 -0.009839109946949
43 -0.000001068668227
44 -0.003837901175143
45 -0.007617972297523
46 -0.005185846966140
47 0.012803819263663
48 0.000012360218045
49 0.033958186065433
50 0.000004968700881
51 0.003984916650117
52 0.000529185679303
53 -0.002146873499414
54 0.004305310785125
55 -0.000000969772408
56 -0.000214836332834
57 -0.088317435853643
58 -0.14733447085207
59 0.41210561866618
60 0.29152665406396
61 -0.039129705382682
62 -0.000010333415641
63 -0.036037206140796
64 -0.056834056609082
65 -0.000015994054209
66 -0.054623409274006
67 -0.020955040854507
68 -0.000007647979656
69 -0.020329633542761
70 0.004187355557957
71 -0.007855319252792
72 0.003667963694834
73 0.000003606346433
74 0.012970333918227
75 0.000003369990092
76 0.069344192456673
77 0.11590434676522
78 -0.32868325969322
79 -0.24577195675000
80 0.001372235276874
81 0.000014028933498
82 0.026258278735614
83 0.003652895383042
84 0.000023425276477
85 0.043846032434851
86 -0.006656234002683
87 0.000011987945542
88 0.020739377618893
89 -0.001705496046411
90 0.005031928915777
91 -0.003326432869365
92 -0.000000474505702
93 -0.000077397086492
94 -0.000004999364155
95 -0.062705528454361