 Entering Gaussian System, Link 0=g16
 Input=ch3och3.com
 Output=ch3och3.log
 Initial command:
 /usr/local/g16/l1.exe "/scratch/ddi/Gau-3789839.inp" -scrdir="/scratch/ddi/"
 Entering Link 1 = /usr/local/g16/l1.exe PID=   3789841.
  
 Copyright (c) 1988,1990,1992,1993,1995,1998,2003,2009,2016,
            Gaussian, Inc.  All Rights Reserved.
  
 This is part of the Gaussian(R) 16 program.  It is based on
 the Gaussian(R) 09 system (copyright 2009, Gaussian, Inc.),
 the Gaussian(R) 03 system (copyright 2003, Gaussian, Inc.),
 the Gaussian(R) 98 system (copyright 1998, Gaussian, Inc.),
 the Gaussian(R) 94 system (copyright 1995, Gaussian, Inc.),
 the Gaussian 92(TM) system (copyright 1992, Gaussian, Inc.),
 the Gaussian 90(TM) system (copyright 1990, Gaussian, Inc.),
 the Gaussian 88(TM) system (copyright 1988, Gaussian, Inc.),
 the Gaussian 86(TM) system (copyright 1986, Carnegie Mellon
 University), and the Gaussian 82(TM) system (copyright 1983,
 Carnegie Mellon University). Gaussian is a federally registered
 trademark of Gaussian, Inc.
  
 This software contains proprietary and confidential information,
 including trade secrets, belonging to Gaussian, Inc.
  
 This software is provided under written license and may be
 used, copied, transmitted, or stored only in accord with that
 written license.
  
 The following legend is applicable only to US Government
 contracts under FAR:
  
                    RESTRICTED RIGHTS LEGEND
  
 Use, reproduction and disclosure by the US Government is
 subject to restrictions as set forth in subparagraphs (a)
 and (c) of the Commercial Computer Software - Restricted
 Rights clause in FAR 52.227-19.
  
 Gaussian, Inc.
 340 Quinnipiac St., Bldg. 40, Wallingford CT 06492
  
  
 ---------------------------------------------------------------
 Warning -- This program may not be used in any manner that
 competes with the business of Gaussian, Inc. or will provide
 assistance to any competitor of Gaussian, Inc.  The licensee
 of this program is prohibited from giving any competitor of
 Gaussian, Inc. access to this program.  By using this program,
 the user acknowledges that Gaussian, Inc. is engaged in the
 business of creating and licensing software in the field of
 computational chemistry and represents and warrants to the
 licensee that it is not a competitor of Gaussian, Inc. and that
 it will not use this program in any manner prohibited above.
 ---------------------------------------------------------------
  

 Cite this work as:
 Gaussian 16, Revision A.03,
 M. J. Frisch, G. W. Trucks, H. B. Schlegel, G. E. Scuseria, 
 M. A. Robb, J. R. Cheeseman, G. Scalmani, V. Barone, 
 G. A. Petersson, H. Nakatsuji, X. Li, M. Caricato, A. V. Marenich, 
 J. Bloino, B. G. Janesko, R. Gomperts, B. Mennucci, H. P. Hratchian, 
 J. V. Ortiz, A. F. Izmaylov, J. L. Sonnenberg, D. Williams-Young, 
 F. Ding, F. Lipparini, F. Egidi, J. Goings, B. Peng, A. Petrone, 
 T. Henderson, D. Ranasinghe, V. G. Zakrzewski, J. Gao, N. Rega, 
 G. Zheng, W. Liang, M. Hada, M. Ehara, K. Toyota, R. Fukuda, 
 J. Hasegawa, M. Ishida, T. Nakajima, Y. Honda, O. Kitao, H. Nakai, 
 T. Vreven, K. Throssell, J. A. Montgomery, Jr., J. E. Peralta, 
 F. Ogliaro, M. J. Bearpark, J. J. Heyd, E. N. Brothers, K. N. Kudin, 
 V. N. Staroverov, T. A. Keith, R. Kobayashi, J. Normand, 
 K. Raghavachari, A. P. Rendell, J. C. Burant, S. S. Iyengar, 
 J. Tomasi, M. Cossi, J. M. Millam, M. Klene, C. Adamo, R. Cammi, 
 J. W. Ochterski, R. L. Martin, K. Morokuma, O. Farkas, 
 J. B. Foresman, and D. J. Fox, Gaussian, Inc., Wallingford CT, 2016.
 
 ******************************************
 Gaussian 16:  ES64L-G16RevA.03 25-Dec-2016
                10-Oct-2022 
 ******************************************
 %nprocshared=12
 Will use up to   12 processors via shared memory.
 %chk=ch3och3.chk
 ----------------------------------------------------
 #p opt=tight freq hf/6-311++g(d,p) geom=connectivity
 ----------------------------------------------------
 1/7=10,18=20,19=15,38=1,57=2/1,3;
 2/9=110,12=2,17=6,18=5,40=1/2;
 3/5=4,6=6,7=1111,11=9,25=1,30=1,71=1/1,2,3;
 4//1;
 5/5=2,38=5/2;
 6/7=2,8=2,9=2,10=2,28=1/1;
 7//1,2,3,16;
 1/7=10,18=20,19=15/3(2);
 2/9=110/2;
 99//99;
 2/9=110/2;
 3/5=4,6=6,7=1111,11=9,25=1,30=1,71=1/1,2,3;
 4/5=5,16=3,69=1/1;
 5/5=2,38=5/2;
 7//1,2,3,16;
 1/7=10,18=20,19=15/3(-5);
 2/9=110/2;
 6/7=2,8=2,9=2,10=2,19=2,28=1/1;
 99/9=1/99;
 Leave Link    1 at Mon Oct 10 14:44:12 2022, MaxMem=           0 cpu:               0.4 elap:               0.0
 (Enter /usr/local/g16/l101.exe)
 -------------------
 Title Card Required
 -------------------
 Symbolic Z-matrix:
 Charge =  0 Multiplicity = 1
 O
 C                    1    B1
 H                    2    B2       1    A1
 H                    2    B3       1    A2       3    D1       0
 H                    2    B4       1    A3       4    D2       0
 C                    1    B5       2    A4       5    D3       0
 H                    6    B6       1    A5       2    D4       0
 H                    6    B7       1    A6       2    D5       0
 H                    6    B8       1    A7       2    D6       0
       Variables:
  B1                    1.43                     
  B2                    1.07                     
  B3                    1.07                     
  B4                    1.07                     
  B5                    1.43                     
  B6                    1.07                     
  B7                    1.07                     
  B8                    1.07                     
  A1                  109.4712                   
  A2                  109.4712                   
  A3                  109.47123                  
  A4                  109.5                      
  A5                  109.4712                   
  A6                  109.4712                   
  A7                  109.47123                  
  D1                  120.00001                  
  D2                  119.99999                  
  D3                   59.99995                  
  D4                  180.                       
  D5                  -60.00008                  
  D6                   59.99992                  
 
     6 tetrahedral angles replaced.
 ITRead=  0  0  0  0  0  0  0  0  0
 MicOpt= -1 -1 -1 -1 -1 -1 -1 -1 -1
 NAtoms=      9 NQM=        9 NQMF=       0 NMMI=      0 NMMIF=      0
                NMic=       0 NMicF=      0.
                    Isotopes and Nuclear Properties:
 (Nuclear quadrupole moments (NQMom) in fm**2, nuclear magnetic moments (NMagM)
  in nuclear magnetons)

  Atom         1           2           3           4           5           6           7           8           9
 IAtWgt=          16          12           1           1           1          12           1           1           1
 AtmWgt=  15.9949146  12.0000000   1.0078250   1.0078250   1.0078250  12.0000000   1.0078250   1.0078250   1.0078250
 NucSpn=           0           0           1           1           1           0           1           1           1
 AtZEff=  -0.0000000  -0.0000000  -0.0000000  -0.0000000  -0.0000000  -0.0000000  -0.0000000  -0.0000000  -0.0000000
 NQMom=    0.0000000   0.0000000   0.0000000   0.0000000   0.0000000   0.0000000   0.0000000   0.0000000   0.0000000
 NMagM=    0.0000000   0.0000000   2.7928460   2.7928460   2.7928460   0.0000000   2.7928460   2.7928460   2.7928460
 AtZNuc=   8.0000000   6.0000000   1.0000000   1.0000000   1.0000000   6.0000000   1.0000000   1.0000000   1.0000000
 Leave Link  101 at Mon Oct 10 14:44:12 2022, MaxMem=   104857600 cpu:               0.6 elap:               0.1
 (Enter /usr/local/g16/l103.exe)

 GradGradGradGradGradGradGradGradGradGradGradGradGradGradGradGradGradGrad
 Berny optimization.
 Initialization pass.
                           ----------------------------
                           !    Initial Parameters    !
                           ! (Angstroms and Degrees)  !
 --------------------------                            --------------------------
 ! Name  Definition              Value          Derivative Info.                !
 --------------------------------------------------------------------------------
 ! R1    R(1,2)                  1.43           estimate D2E/DX2                !
 ! R2    R(1,6)                  1.43           estimate D2E/DX2                !
 ! R3    R(2,3)                  1.07           estimate D2E/DX2                !
 ! R4    R(2,4)                  1.07           estimate D2E/DX2                !
 ! R5    R(2,5)                  1.07           estimate D2E/DX2                !
 ! R6    R(6,7)                  1.07           estimate D2E/DX2                !
 ! R7    R(6,8)                  1.07           estimate D2E/DX2                !
 ! R8    R(6,9)                  1.07           estimate D2E/DX2                !
 ! A1    A(2,1,6)              109.5            estimate D2E/DX2                !
 ! A2    A(1,2,3)              109.4712         estimate D2E/DX2                !
 ! A3    A(1,2,4)              109.4712         estimate D2E/DX2                !
 ! A4    A(1,2,5)              109.4712         estimate D2E/DX2                !
 ! A5    A(3,2,4)              109.4712         estimate D2E/DX2                !
 ! A6    A(3,2,5)              109.4712         estimate D2E/DX2                !
 ! A7    A(4,2,5)              109.4712         estimate D2E/DX2                !
 ! A8    A(1,6,7)              109.4712         estimate D2E/DX2                !
 ! A9    A(1,6,8)              109.4712         estimate D2E/DX2                !
 ! A10   A(1,6,9)              109.4712         estimate D2E/DX2                !
 ! A11   A(7,6,8)              109.4712         estimate D2E/DX2                !
 ! A12   A(7,6,9)              109.4713         estimate D2E/DX2                !
 ! A13   A(8,6,9)              109.4712         estimate D2E/DX2                !
 ! D1    D(6,1,2,3)            179.9999         estimate D2E/DX2                !
 ! D2    D(6,1,2,4)            -60.0            estimate D2E/DX2                !
 ! D3    D(6,1,2,5)             59.9999         estimate D2E/DX2                !
 ! D4    D(2,1,6,7)            180.0            estimate D2E/DX2                !
 ! D5    D(2,1,6,8)            -60.0001         estimate D2E/DX2                !
 ! D6    D(2,1,6,9)             59.9999         estimate D2E/DX2                !
 --------------------------------------------------------------------------------
 Trust Radius=3.00D-01 FncErr=1.00D-07 GrdErr=1.00D-07 EigMax=2.50D+02 EigMin=1.00D-04
 Number of steps in this run=     37 maximum allowed number of steps=    100.
 GradGradGradGradGradGradGradGradGradGradGradGradGradGradGradGradGradGrad

 Leave Link  103 at Mon Oct 10 14:44:12 2022, MaxMem=   104857600 cpu:               0.0 elap:               0.0
 (Enter /usr/local/g16/l202.exe)
                          Input orientation:                          
 ---------------------------------------------------------------------
 Center     Atomic      Atomic             Coordinates (Angstroms)
 Number     Number       Type             X           Y           Z
 ---------------------------------------------------------------------
      1          8           0        0.000000    0.000000    0.000000
      2          6           0        0.000000    0.000000    1.430000
      3          1           0        1.008806    0.000000    1.786667
      4          1           0       -0.504403    0.873651    1.786667
      5          1           0       -0.504403   -0.873651    1.786667
      6          6           0       -1.347977   -0.000001   -0.477344
      7          1           0       -1.347440   -0.000001   -1.547344
      8          1           0       -1.852558   -0.873654   -0.120932
      9          1           0       -1.852561    0.873649   -0.120929
 ---------------------------------------------------------------------
                    Distance matrix (angstroms):
                    1          2          3          4          5
     1  O    0.000000
     2  C    1.430000   0.000000
     3  H    2.051796   1.070000   0.000000
     4  H    2.051796   1.070000   1.747303   0.000000
     5  H    2.051796   1.070000   1.747303   1.747303   0.000000
     6  C    1.430000   2.335595   3.268053   2.569169   2.569168
     7  H    2.051796   3.268053   4.082587   3.548183   3.548183
     8  H    2.051796   2.569169   3.548183   2.917110   2.335905
     9  H    2.051796   2.569168   3.548183   2.335905   2.917106
                    6          7          8          9
     6  C    0.000000
     7  H    1.070000   0.000000
     8  H    1.070000   1.747302   0.000000
     9  H    1.070000   1.747303   1.747303   0.000000
 Stoichiometry    C2H6O
 Framework group  C2[C2(O),X(C2H6)]
 Deg. of freedom    11
 Full point group                 C2      NOp   2
 Largest Abelian subgroup         C2      NOp   2
 Largest concise Abelian subgroup C2      NOp   2
                         Standard orientation:                         
 ---------------------------------------------------------------------
 Center     Atomic      Atomic             Coordinates (Angstroms)
 Number     Number       Type             X           Y           Z
 ---------------------------------------------------------------------
      1          8           0       -0.000000    0.000000    0.618877
      2          6           0        0.000000    1.167797   -0.206440
      3          1           0       -0.000001    2.041294    0.411544
      4          1           0        0.873652    1.167953   -0.824205
      5          1           0       -0.873651    1.167952   -0.824206
      6          6           0       -0.000000   -1.167797   -0.206440
      7          1           0        0.000001   -2.041294    0.411544
      8          1           0       -0.873652   -1.167953   -0.824205
      9          1           0        0.873651   -1.167952   -0.824206
 ---------------------------------------------------------------------
 Rotational constants (GHZ):          38.3578255          10.1675490           8.9090359
 Leave Link  202 at Mon Oct 10 14:44:12 2022, MaxMem=   104857600 cpu:               0.0 elap:               0.0
 (Enter /usr/local/g16/l301.exe)
 Standard basis: 6-311++G(d,p) (5D, 7F)
 Ernie: Thresh=  0.10000D-02 Tol=  0.10000D-05 Strict=F.
 There are    57 symmetry adapted cartesian basis functions of A   symmetry.
 There are    54 symmetry adapted cartesian basis functions of B   symmetry.
 There are    55 symmetry adapted basis functions of A   symmetry.
 There are    53 symmetry adapted basis functions of B   symmetry.
   108 basis functions,   162 primitive gaussians,   111 cartesian basis functions
    13 alpha electrons       13 beta electrons
       nuclear repulsion energy        84.1110806815 Hartrees.
 IExCor=    0 DFT=F Ex=HF Corr=None ExCW=0 ScaHFX=  1.000000
 ScaDFX=  1.000000  1.000000  1.000000  1.000000 ScalE2=  1.000000  1.000000
 IRadAn=      5 IRanWt=     -1 IRanGd=            0 ICorTp=0 IEmpDi=  4
 NAtoms=    9 NActive=    9 NUniq=    5 SFac= 3.24D+00 NAtFMM=   60 NAOKFM=F Big=F
 Integral buffers will be    131072 words long.
 Raffenetti 1 integral format.
 Two-electron integral symmetry is turned on.
 Leave Link  301 at Mon Oct 10 14:44:12 2022, MaxMem=   104857600 cpu:               0.3 elap:               0.0
 (Enter /usr/local/g16/l302.exe)
 NPDir=0 NMtPBC=     1 NCelOv=     1 NCel=       1 NClECP=     1 NCelD=      1
         NCelK=      1 NCelE2=     1 NClLst=     1 CellRange=     0.0.
 One-electron integrals computed using PRISM.
 One-electron integral symmetry used in STVInt
 NBasis=   108 RedAO= T EigKep=  3.38D-04  NBF=    55    53
 NBsUse=   108 1.00D-06 EigRej= -1.00D+00 NBFU=    55    53
 Leave Link  302 at Mon Oct 10 14:44:12 2022, MaxMem=   104857600 cpu:               0.8 elap:               0.1
 (Enter /usr/local/g16/l303.exe)
 DipDrv:  MaxL=1.
 Leave Link  303 at Mon Oct 10 14:44:12 2022, MaxMem=   104857600 cpu:               0.2 elap:               0.0
 (Enter /usr/local/g16/l401.exe)
 ExpMin= 3.60D-02 ExpMax= 8.59D+03 ExpMxC= 1.30D+03 IAcc=3 IRadAn=         5 AccDes= 0.00D+00
 Harris functional with IExCor=  205 and IRadAn=       5 diagonalized for initial guess.
 HarFok:  IExCor=  205 AccDes= 0.00D+00 IRadAn=         5 IDoV= 1 UseB2=F ITyADJ=14
 ICtDFT=  3500011 ScaDFX=  1.000000  1.000000  1.000000  1.000000
 FoFCou: FMM=F IPFlag=           0 FMFlag=      100000 FMFlg1=           0
         NFxFlg=           0 DoJE=T BraDBF=F KetDBF=T FulRan=T
         wScrn=  0.000000 ICntrl=       500 IOpCl=  0 I1Cent=   200000004 NGrid=           0
         NMat0=    1 NMatS0=      1 NMatT0=    0 NMatD0=    1 NMtDS0=    0 NMtDT0=    0
 Petite list used in FoFCou.
 Harris En= -154.377669826536    
 JPrj=0 DoOrth=F DoCkMO=F.
 Initial guess orbital symmetries:
       Occupied  (A) (B) (A) (A) (B) (A) (B) (A) (B) (A) (B) (A)
                 (B)
       Virtual   (A) (A) (B) (B) (A) (B) (A) (A) (B) (B) (A) (B)
                 (A) (A) (B) (B) (A) (B) (A) (A) (B) (B) (A) (B)
                 (B) (A) (A) (A) (B) (B) (A) (B) (B) (B) (A) (A)
                 (A) (B) (A) (A) (B) (B) (A) (B) (B) (A) (B) (B)
                 (A) (A) (B) (B) (A) (A) (A) (A) (B) (A) (B) (B)
                 (B) (A) (B) (A) (A) (B) (A) (A) (B) (A) (B) (B)
                 (B) (A) (A) (B) (A) (B) (A) (B) (B) (A) (A) (B)
                 (A) (A) (B) (A) (B) (B) (A) (B) (A) (B) (A)
 The electronic state of the initial guess is 1-A.
 Leave Link  401 at Mon Oct 10 14:44:13 2022, MaxMem=   104857600 cpu:               1.3 elap:               0.1
 (Enter /usr/local/g16/l502.exe)
 Keep R1 ints in memory in symmetry-blocked form, NReq=26004190.
 FoFCou: FMM=F IPFlag=           0 FMFlag=           0 FMFlg1=           0
         NFxFlg=           0 DoJE=F BraDBF=F KetDBF=F FulRan=T
         wScrn=  0.000000 ICntrl=       600 IOpCl=  0 I1Cent=           0 NGrid=           0
         NMat0=    1 NMatS0=   5886 NMatT0=    0 NMatD0=    1 NMtDS0=    0 NMtDT0=    0
 Petite list used in FoFCou.
 Closed shell SCF:
 Using DIIS extrapolation, IDIIS=  1040.
 NGot=   104857600 LenX=    96152446 LenY=    96139684
 Requested convergence on RMS density matrix=1.00D-08 within 128 cycles.
 Requested convergence on MAX density matrix=1.00D-06.
 Requested convergence on             energy=1.00D-06.
 No special actions if energy rises.

 Cycle   1  Pass 1  IDiag  1:
 E= -153.944319332434    
 DIIS: error= 7.48D-02 at cycle   1 NSaved=   1.
 NSaved= 1 IEnMin= 1 EnMin= -153.944319332434     IErMin= 1 ErrMin= 7.48D-02
 ErrMax= 7.48D-02  0.00D+00 EMaxC= 1.00D-01 BMatC= 3.15D-01 BMatP= 3.15D-01
 IDIUse=3 WtCom= 2.52D-01 WtEn= 7.48D-01
 Coeff-Com:  0.100D+01
 Coeff-En:   0.100D+01
 Coeff:      0.100D+01
 Gap=     0.457 Goal=   None    Shift=    0.000
 GapD=    0.457 DampG=2.000 DampE=0.500 DampFc=1.0000 IDamp=-1.
 RMSDP=3.10D-03 MaxDP=8.75D-02              OVMax= 1.10D-01

 Cycle   2  Pass 1  IDiag  1:
 E= -154.089175219820     Delta-E=       -0.144855887386 Rises=F Damp=F
 DIIS: error= 1.54D-02 at cycle   2 NSaved=   2.
 NSaved= 2 IEnMin= 2 EnMin= -154.089175219820     IErMin= 2 ErrMin= 1.54D-02
 ErrMax= 1.54D-02  0.00D+00 EMaxC= 1.00D-01 BMatC= 2.31D-02 BMatP= 3.15D-01
 IDIUse=3 WtCom= 8.46D-01 WtEn= 1.54D-01
 Coeff-Com:  0.136D+00 0.864D+00
 Coeff-En:   0.000D+00 0.100D+01
 Coeff:      0.115D+00 0.885D+00
 Gap=     0.498 Goal=   None    Shift=    0.000
 RMSDP=1.26D-03 MaxDP=3.31D-02 DE=-1.45D-01 OVMax= 3.45D-02

 Cycle   3  Pass 1  IDiag  1:
 E= -154.106736085355     Delta-E=       -0.017560865535 Rises=F Damp=F
 DIIS: error= 5.35D-03 at cycle   3 NSaved=   3.
 NSaved= 3 IEnMin= 3 EnMin= -154.106736085355     IErMin= 3 ErrMin= 5.35D-03
 ErrMax= 5.35D-03  0.00D+00 EMaxC= 1.00D-01 BMatC= 1.95D-03 BMatP= 2.31D-02
 IDIUse=3 WtCom= 9.47D-01 WtEn= 5.35D-02
 Coeff-Com: -0.142D-01 0.186D+00 0.828D+00
 Coeff-En:   0.000D+00 0.000D+00 0.100D+01
 Coeff:     -0.135D-01 0.176D+00 0.837D+00
 Gap=     0.464 Goal=   None    Shift=    0.000
 RMSDP=2.70D-04 MaxDP=7.60D-03 DE=-1.76D-02 OVMax= 1.01D-02

 Cycle   4  Pass 1  IDiag  1:
 E= -154.108234024604     Delta-E=       -0.001497939249 Rises=F Damp=F
 DIIS: error= 1.34D-03 at cycle   4 NSaved=   4.
 NSaved= 4 IEnMin= 4 EnMin= -154.108234024604     IErMin= 4 ErrMin= 1.34D-03
 ErrMax= 1.34D-03  0.00D+00 EMaxC= 1.00D-01 BMatC= 1.06D-04 BMatP= 1.95D-03
 IDIUse=3 WtCom= 9.87D-01 WtEn= 1.34D-02
 Coeff-Com: -0.602D-02 0.288D-01 0.232D+00 0.745D+00
 Coeff-En:   0.000D+00 0.000D+00 0.000D+00 0.100D+01
 Coeff:     -0.594D-02 0.284D-01 0.229D+00 0.748D+00
 Gap=     0.468 Goal=   None    Shift=    0.000
 RMSDP=7.05D-05 MaxDP=2.00D-03 DE=-1.50D-03 OVMax= 2.49D-03

 Cycle   5  Pass 1  IDiag  1:
 E= -154.108316906698     Delta-E=       -0.000082882094 Rises=F Damp=F
 DIIS: error= 3.70D-04 at cycle   5 NSaved=   5.
 NSaved= 5 IEnMin= 5 EnMin= -154.108316906698     IErMin= 5 ErrMin= 3.70D-04
 ErrMax= 3.70D-04  0.00D+00 EMaxC= 1.00D-01 BMatC= 7.41D-06 BMatP= 1.06D-04
 IDIUse=3 WtCom= 9.96D-01 WtEn= 3.70D-03
 Coeff-Com:  0.617D-03-0.167D-01-0.595D-01 0.101D+00 0.974D+00
 Coeff-En:   0.000D+00 0.000D+00 0.000D+00 0.000D+00 0.100D+01
 Coeff:      0.615D-03-0.166D-01-0.593D-01 0.101D+00 0.975D+00
 Gap=     0.468 Goal=   None    Shift=    0.000
 RMSDP=3.33D-05 MaxDP=5.27D-04 DE=-8.29D-05 OVMax= 7.85D-04

 Cycle   6  Pass 1  IDiag  1:
 E= -154.108324985423     Delta-E=       -0.000008078725 Rises=F Damp=F
 DIIS: error= 4.81D-05 at cycle   6 NSaved=   6.
 NSaved= 6 IEnMin= 6 EnMin= -154.108324985423     IErMin= 6 ErrMin= 4.81D-05
 ErrMax= 4.81D-05  0.00D+00 EMaxC= 1.00D-01 BMatC= 1.52D-07 BMatP= 7.41D-06
 IDIUse=1 WtCom= 1.00D+00 WtEn= 0.00D+00
 Coeff-Com:  0.389D-03-0.258D-02-0.148D-01-0.334D-01-0.869D-02 0.106D+01
 Coeff:      0.389D-03-0.258D-02-0.148D-01-0.334D-01-0.869D-02 0.106D+01
 Gap=     0.468 Goal=   None    Shift=    0.000
 RMSDP=9.82D-06 MaxDP=1.02D-04 DE=-8.08D-06 OVMax= 2.51D-04

 Cycle   7  Pass 1  IDiag  1:
 E= -154.108325310474     Delta-E=       -0.000000325051 Rises=F Damp=F
 DIIS: error= 7.70D-06 at cycle   7 NSaved=   7.
 NSaved= 7 IEnMin= 7 EnMin= -154.108325310474     IErMin= 7 ErrMin= 7.70D-06
 ErrMax= 7.70D-06  0.00D+00 EMaxC= 1.00D-01 BMatC= 4.15D-09 BMatP= 1.52D-07
 IDIUse=1 WtCom= 1.00D+00 WtEn= 0.00D+00
 Coeff-Com: -0.735D-04 0.764D-03 0.403D-02 0.487D-02-0.154D-01-0.237D+00
 Coeff-Com:  0.124D+01
 Coeff:     -0.735D-04 0.764D-03 0.403D-02 0.487D-02-0.154D-01-0.237D+00
 Coeff:      0.124D+01
 Gap=     0.468 Goal=   None    Shift=    0.000
 RMSDP=1.95D-06 MaxDP=2.40D-05 DE=-3.25D-07 OVMax= 6.44D-05

 Cycle   8  Pass 1  IDiag  1:
 E= -154.108325321736     Delta-E=       -0.000000011262 Rises=F Damp=F
 DIIS: error= 1.99D-06 at cycle   8 NSaved=   8.
 NSaved= 8 IEnMin= 8 EnMin= -154.108325321736     IErMin= 8 ErrMin= 1.99D-06
 ErrMax= 1.99D-06  0.00D+00 EMaxC= 1.00D-01 BMatC= 2.49D-10 BMatP= 4.15D-09
 IDIUse=1 WtCom= 1.00D+00 WtEn= 0.00D+00
 Coeff-Com:  0.493D-05-0.107D-03-0.544D-03 0.277D-03 0.672D-02 0.109D-01
 Coeff-Com: -0.306D+00 0.129D+01
 Coeff:      0.493D-05-0.107D-03-0.544D-03 0.277D-03 0.672D-02 0.109D-01
 Coeff:     -0.306D+00 0.129D+01
 Gap=     0.468 Goal=   None    Shift=    0.000
 RMSDP=3.40D-07 MaxDP=5.92D-06 DE=-1.13D-08 OVMax= 1.75D-05

 Cycle   9  Pass 1  IDiag  1:
 E= -154.108325322424     Delta-E=       -0.000000000688 Rises=F Damp=F
 DIIS: error= 4.57D-07 at cycle   9 NSaved=   9.
 NSaved= 9 IEnMin= 9 EnMin= -154.108325322424     IErMin= 9 ErrMin= 4.57D-07
 ErrMax= 4.57D-07  0.00D+00 EMaxC= 1.00D-01 BMatC= 1.32D-11 BMatP= 2.49D-10
 IDIUse=1 WtCom= 1.00D+00 WtEn= 0.00D+00
 Coeff-Com:  0.221D-05-0.129D-04-0.775D-04-0.191D-03-0.818D-03 0.866D-02
 Coeff-Com:  0.652D-02-0.302D+00 0.129D+01
 Coeff:      0.221D-05-0.129D-04-0.775D-04-0.191D-03-0.818D-03 0.866D-02
 Coeff:      0.652D-02-0.302D+00 0.129D+01
 Gap=     0.468 Goal=   None    Shift=    0.000
 RMSDP=9.95D-08 MaxDP=1.46D-06 DE=-6.88D-10 OVMax= 4.35D-06

 Cycle  10  Pass 1  IDiag  1:
 E= -154.108325322463     Delta-E=       -0.000000000039 Rises=F Damp=F
 DIIS: error= 8.06D-08 at cycle  10 NSaved=  10.
 NSaved=10 IEnMin=10 EnMin= -154.108325322463     IErMin=10 ErrMin= 8.06D-08
 ErrMax= 8.06D-08  0.00D+00 EMaxC= 1.00D-01 BMatC= 4.31D-13 BMatP= 1.32D-11
 IDIUse=1 WtCom= 1.00D+00 WtEn= 0.00D+00
 Coeff-Com: -0.650D-06 0.718D-05 0.407D-04 0.445D-04-0.804D-04-0.265D-02
 Coeff-Com:  0.118D-01 0.152D-01-0.304D+00 0.128D+01
 Coeff:     -0.650D-06 0.718D-05 0.407D-04 0.445D-04-0.804D-04-0.265D-02
 Coeff:      0.118D-01 0.152D-01-0.304D+00 0.128D+01
 Gap=     0.468 Goal=   None    Shift=    0.000
 RMSDP=3.18D-08 MaxDP=6.19D-07 DE=-3.89D-11 OVMax= 7.67D-07

 Cycle  11  Pass 1  IDiag  1:
 E= -154.108325322463     Delta-E=       -0.000000000001 Rises=F Damp=F
 DIIS: error= 2.47D-08 at cycle  11 NSaved=  11.
 NSaved=11 IEnMin=11 EnMin= -154.108325322463     IErMin=11 ErrMin= 2.47D-08
 ErrMax= 2.47D-08  0.00D+00 EMaxC= 1.00D-01 BMatC= 1.28D-14 BMatP= 4.31D-13
 IDIUse=1 WtCom= 1.00D+00 WtEn= 0.00D+00
 Coeff-Com:  0.119D-06-0.175D-05-0.101D-04-0.287D-05 0.494D-04 0.498D-03
 Coeff-Com: -0.378D-02 0.564D-02 0.477D-01-0.360D+00 0.131D+01
 Coeff:      0.119D-06-0.175D-05-0.101D-04-0.287D-05 0.494D-04 0.498D-03
 Coeff:     -0.378D-02 0.564D-02 0.477D-01-0.360D+00 0.131D+01
 Gap=     0.468 Goal=   None    Shift=    0.000
 RMSDP=3.94D-09 MaxDP=9.75D-08 DE=-6.82D-13 OVMax= 8.22D-08

 SCF Done:  E(RHF) =  -154.108325322     A.U. after   11 cycles
            NFock= 11  Conv=0.39D-08     -V/T= 2.0001
 KE= 1.540972898581D+02 PE=-5.300461666198D+02 EE= 1.377294707578D+02
 Leave Link  502 at Mon Oct 10 14:44:13 2022, MaxMem=   104857600 cpu:               3.3 elap:               0.3
 (Enter /usr/local/g16/l601.exe)
 Copying SCF densities to generalized density rwf, IOpCl= 0 IROHF=0.

 **********************************************************************

            Population analysis using the SCF density.

 **********************************************************************

 Orbital symmetries:
       Occupied  (A) (B) (A) (A) (B) (A) (B) (A) (B) (A) (B) (A)
                 (B)
       Virtual   (A) (B) (B) (A) (B) (A) (A) (B) (B) (A) (A) (A)
                 (B) (B) (A) (B) (A) (A) (A) (B) (A) (B) (B) (B)
                 (B) (A) (A) (A) (B) (B) (A) (B) (B) (B) (A) (A)
                 (B) (A) (A) (B) (A) (B) (B) (A) (B) (A) (B) (B)
                 (A) (B) (A) (B) (A) (A) (A) (A) (B) (A) (B) (B)
                 (B) (A) (B) (A) (A) (B) (B) (A) (B) (A) (A) (B)
                 (A) (A) (B) (B) (A) (B) (A) (B) (B) (A) (A) (B)
                 (A) (A) (B) (A) (B) (B) (A) (B) (A) (B) (A)
 The electronic state is 1-A.
 Alpha  occ. eigenvalues --  -20.55155 -11.26297 -11.26295  -1.36093  -0.97074
 Alpha  occ. eigenvalues --   -0.88786  -0.66228  -0.65108  -0.63026  -0.56076
 Alpha  occ. eigenvalues --   -0.53449  -0.48239  -0.42669
 Alpha virt. eigenvalues --    0.04128   0.05494   0.07084   0.07433   0.09067
 Alpha virt. eigenvalues --    0.09732   0.11230   0.14504   0.16257   0.17016
 Alpha virt. eigenvalues --    0.18443   0.19001   0.19895   0.21051   0.28074
 Alpha virt. eigenvalues --    0.28915   0.30486   0.33312   0.34009   0.34407
 Alpha virt. eigenvalues --    0.37543   0.37777   0.38978   0.42016   0.45977
 Alpha virt. eigenvalues --    0.48867   0.56028   0.56900   0.60956   0.70329
 Alpha virt. eigenvalues --    0.76666   0.79425   0.84950   0.86182   0.87095
 Alpha virt. eigenvalues --    0.88105   0.91286   0.91621   1.08398   1.16515
 Alpha virt. eigenvalues --    1.19279   1.21639   1.30335   1.31595   1.48602
 Alpha virt. eigenvalues --    1.49380   1.56436   1.71493   1.73416   1.80148
 Alpha virt. eigenvalues --    1.80742   1.82031   1.82048   1.87066   1.92247
 Alpha virt. eigenvalues --    1.94512   1.97520   2.01518   2.02136   2.17169
 Alpha virt. eigenvalues --    2.27612   2.36643   2.38042   2.43775   2.47676
 Alpha virt. eigenvalues --    2.53098   2.77190   2.77923   2.82419   2.83031
 Alpha virt. eigenvalues --    2.83717   2.89942   2.91440   2.92689   2.92927
 Alpha virt. eigenvalues --    3.05418   3.20971   3.27543   3.34834   3.38425
 Alpha virt. eigenvalues --    3.45269   3.61384   3.67494   4.22405   4.24739
 Alpha virt. eigenvalues --    4.25796   4.26229   4.48770   4.50963   5.62852
 Alpha virt. eigenvalues --    5.93300   6.21104  25.12045  25.15290  51.60460
          Condensed to atoms (all electrons):
               1          2          3          4          5          6
     1  O    8.220229   0.190514  -0.050492  -0.052671  -0.052671   0.190514
     2  C    0.190514   4.933747   0.421313   0.406446   0.406447  -0.179772
     3  H   -0.050492   0.421313   0.540881  -0.027245  -0.027245   0.014737
     4  H   -0.052671   0.406446  -0.027245   0.623226  -0.067713   0.008165
     5  H   -0.052671   0.406447  -0.027245  -0.067713   0.623226   0.008165
     6  C    0.190514  -0.179772   0.014737   0.008165   0.008165   4.933747
     7  H   -0.050492   0.014737  -0.000197  -0.001221  -0.001221   0.421313
     8  H   -0.052671   0.008165  -0.001221   0.002853  -0.003774   0.406446
     9  H   -0.052671   0.008165  -0.001221  -0.003774   0.002853   0.406447
               7          8          9
     1  O   -0.050492  -0.052671  -0.052671
     2  C    0.014737   0.008165   0.008165
     3  H   -0.000197  -0.001221  -0.001221
     4  H   -0.001221   0.002853  -0.003774
     5  H   -0.001221  -0.003774   0.002853
     6  C    0.421313   0.406446   0.406447
     7  H    0.540881  -0.027245  -0.027245
     8  H   -0.027245   0.623226  -0.067713
     9  H   -0.027245  -0.067713   0.623226
 Mulliken charges:
               1
     1  O   -0.289588
     2  C   -0.209763
     3  H    0.130689
     4  H    0.111935
     5  H    0.111934
     6  C   -0.209763
     7  H    0.130689
     8  H    0.111935
     9  H    0.111934
 Sum of Mulliken charges =  -0.00000
 Mulliken charges with hydrogens summed into heavy atoms:
               1
     1  O   -0.289588
     2  C    0.144794
     6  C    0.144794
 Electronic spatial extent (au):  <R**2>=            185.6562
 Charge=             -0.0000 electrons
 Dipole moment (field-independent basis, Debye):
    X=             -0.0000    Y=             -0.0000    Z=             -1.8054  Tot=              1.8054
 Quadrupole moment (field-independent basis, Debye-Ang):
   XX=            -19.9924   YY=            -16.7049   ZZ=            -21.6581
   XY=             -0.0000   XZ=             -0.0000   YZ=              0.0000
 Traceless Quadrupole moment (field-independent basis, Debye-Ang):
   XX=             -0.5406   YY=              2.7469   ZZ=             -2.2063
   XY=             -0.0000   XZ=             -0.0000   YZ=              0.0000
 Octapole moment (field-independent basis, Debye-Ang**2):
  XXX=              0.0000  YYY=              0.0000  ZZZ=              0.6845  XYY=             -0.0000
  XXY=              0.0000  XXZ=             -0.6225  XZZ=              0.0000  YZZ=              0.0000
  YYZ=              2.3331  XYZ=             -0.0000
 Hexadecapole moment (field-independent basis, Debye-Ang**3):
 XXXX=            -32.4969 YYYY=           -153.2829 ZZZZ=            -52.1667 XXXY=              0.0000
 XXXZ=              0.0000 YYYX=             -0.0000 YYYZ=             -0.0000 ZZZX=             -0.0000
 ZZZY=             -0.0000 XXYY=            -33.4959 XXZZ=            -13.3209 YYZZ=            -33.7945
 XXYZ=             -0.0000 YYXZ=             -0.0000 ZZXY=             -0.0000
 N-N= 8.411108068145D+01 E-N=-5.300461662741D+02  KE= 1.540972898581D+02
 Symmetry A    KE= 1.068469003611D+02
 Symmetry B    KE= 4.725038949696D+01
 No NMR shielding tensors so no spin-rotation constants.
 Leave Link  601 at Mon Oct 10 14:44:13 2022, MaxMem=   104857600 cpu:               0.9 elap:               0.1
 (Enter /usr/local/g16/l701.exe)
 ... and contract with generalized density number  0.
 Compute integral first derivatives.
 Leave Link  701 at Mon Oct 10 14:44:13 2022, MaxMem=   104857600 cpu:               0.8 elap:               0.1
 (Enter /usr/local/g16/l702.exe)
 L702 exits ... SP integral derivatives will be done elsewhere.
 Leave Link  702 at Mon Oct 10 14:44:13 2022, MaxMem=   104857600 cpu:               0.1 elap:               0.0
 (Enter /usr/local/g16/l703.exe)
 Integral derivatives from FoFJK, PRISM(SPDF).
 Compute integral first derivatives, UseDBF=F ICtDFT=           0.
 Calling FoFJK, ICntrl=      2127 FMM=F ISym2X=1 I1Cent= 0 IOpClX= 0 NMat=1 NMatS=1 NMatT=0.
 FoFJK:  IHMeth= 1 ICntrl=    2127 DoSepK=F KAlg= 0 I1Cent=           0 FoldK=F
 IRaf=         0 NMat=       1 IRICut=       1 DoRegI=T DoRafI=F ISym2E= 1 IDoP0=0 IntGTp=1.
 FoFCou: FMM=F IPFlag=           0 FMFlag=      100000 FMFlg1=         800
         NFxFlg=           0 DoJE=F BraDBF=F KetDBF=F FulRan=T
         wScrn=  0.000000 ICntrl=      2127 IOpCl=  0 I1Cent=           0 NGrid=           0
         NMat0=    1 NMatS0=      1 NMatT0=    0 NMatD0=    1 NMtDS0=    0 NMtDT0=    0
 Petite list used in FoFCou.
 Leave Link  703 at Mon Oct 10 14:44:13 2022, MaxMem=   104857600 cpu:               1.6 elap:               0.1
 (Enter /usr/local/g16/l716.exe)
 Dipole        = 0.00000000D+00-2.66453526D-15-7.10317702D-01
 ***** Axes restored to original set *****
 -------------------------------------------------------------------
 Center     Atomic                   Forces (Hartrees/Bohr)
 Number     Number              X              Y              Z
 -------------------------------------------------------------------
      1        8          -0.021436046   -0.000000017    0.015149500
      2        6           0.002199183   -0.000000047   -0.033761173
      3        1           0.008968783    0.000000022   -0.000981631
      4        1          -0.005219093    0.010034773    0.006517491
      5        1          -0.005219105   -0.010034768    0.006517510
      6        6           0.032558785    0.000000075    0.009196670
      7        1           0.003919168   -0.000000012   -0.008126672
      8        1          -0.007885816   -0.010034784    0.002744143
      9        1          -0.007885859    0.010034758    0.002744163
 -------------------------------------------------------------------
 Cartesian Forces:  Max     0.033761173 RMS     0.011898921
 Leave Link  716 at Mon Oct 10 14:44:13 2022, MaxMem=   104857600 cpu:               0.2 elap:               0.0
 (Enter /usr/local/g16/l103.exe)

 GradGradGradGradGradGradGradGradGradGradGradGradGradGradGradGradGradGrad
 Berny optimization.
 FormGI is forming the generalized inverse of G from B-inverse, IUseBI=4.
 Internal  Forces:  Max     0.021707804 RMS     0.008985225
 Search for a local minimum.
 Step number   1 out of a maximum of   37
 All quantities printed in internal units (Hartrees-Bohrs-Radians)
 RMS Force = .89852D-02 SwitMx=.10000D-02 MixMth= 1
 Mixed Optimization -- RFO/linear search
 Second derivative matrix not updated -- first step.
 ITU=  0
     Eigenvalues ---    0.01295   0.01295   0.10344   0.10344   0.10344
     Eigenvalues ---    0.10344   0.16000   0.16000   0.16000   0.16000
     Eigenvalues ---    0.16000   0.16000   0.25000   0.37230   0.37230
     Eigenvalues ---    0.37230   0.37230   0.37230   0.37230   0.40989
     Eigenvalues ---    0.40989
 RFO step:  Lambda=-6.66319991D-03 EMin= 1.29493790D-02
 Linear search not attempted -- first point.
 Iteration  1 RMS(Cart)=  0.06245409 RMS(Int)=  0.00231426
 Iteration  2 RMS(Cart)=  0.00281084 RMS(Int)=  0.00030419
 Iteration  3 RMS(Cart)=  0.00000443 RMS(Int)=  0.00030418
 Iteration  4 RMS(Cart)=  0.00000000 RMS(Int)=  0.00030418
 ITry= 1 IFail=0 DXMaxC= 1.51D-01 DCOld= 1.00D+10 DXMaxT= 3.00D-01 DXLimC= 3.00D+00 Rises=F
 ClnCor:  largest displacement from symmetrization is 1.43D-09 for atom     8.
 Variable       Old X    -DE/DX   Delta X   Delta X   Delta X     New X
                                 (Linear)    (Quad)   (Total)
    R1        2.70231  -0.02171   0.00000  -0.05211  -0.05211   2.65020
    R2        2.70231  -0.02171   0.00000  -0.05211  -0.05211   2.65020
    R3        2.02201   0.00813   0.00000   0.02145   0.02145   2.04346
    R4        2.02201   0.01283   0.00000   0.03385   0.03385   2.05585
    R5        2.02201   0.01283   0.00000   0.03385   0.03385   2.05585
    R6        2.02201   0.00813   0.00000   0.02145   0.02145   2.04346
    R7        2.02201   0.01283   0.00000   0.03385   0.03385   2.05585
    R8        2.02201   0.01283   0.00000   0.03385   0.03385   2.05585
    A1        1.91114   0.01528   0.00000   0.05952   0.05952   1.97066
    A2        1.91063  -0.00779   0.00000  -0.05067  -0.05056   1.86007
    A3        1.91063   0.00432   0.00000   0.02788   0.02759   1.93822
    A4        1.91063   0.00432   0.00000   0.02788   0.02759   1.93822
    A5        1.91063   0.00013   0.00000  -0.00317  -0.00307   1.90757
    A6        1.91063   0.00013   0.00000  -0.00317  -0.00307   1.90757
    A7        1.91063  -0.00111   0.00000   0.00123   0.00061   1.91124
    A8        1.91063  -0.00779   0.00000  -0.05067  -0.05056   1.86007
    A9        1.91063   0.00432   0.00000   0.02788   0.02759   1.93822
   A10        1.91063   0.00432   0.00000   0.02788   0.02759   1.93822
   A11        1.91063   0.00013   0.00000  -0.00317  -0.00307   1.90757
   A12        1.91063   0.00013   0.00000  -0.00317  -0.00307   1.90757
   A13        1.91063  -0.00111   0.00000   0.00123   0.00061   1.91124
    D1        3.14159   0.00000   0.00000   0.00000   0.00000   3.14159
    D2       -1.04720  -0.00196   0.00000  -0.01783  -0.01840  -1.06560
    D3        1.04720   0.00196   0.00000   0.01783   0.01840   1.06560
    D4        3.14159   0.00000   0.00000   0.00000   0.00000   3.14159
    D5       -1.04720  -0.00196   0.00000  -0.01783  -0.01840  -1.06560
    D6        1.04720   0.00196   0.00000   0.01783   0.01840   1.06560
         Item               Value     Threshold  Converged?
 Maximum Force            0.021708     0.000015     NO 
 RMS     Force            0.008985     0.000010     NO 
 Maximum Displacement     0.150908     0.000060     NO 
 RMS     Displacement     0.063255     0.000040     NO 
 Predicted change in Energy=-3.417672D-03
 Lowest energy point so far.  Saving SCF results.
 GradGradGradGradGradGradGradGradGradGradGradGradGradGradGradGradGradGrad

 Leave Link  103 at Mon Oct 10 14:44:13 2022, MaxMem=   104857600 cpu:               0.2 elap:               0.0
 (Enter /usr/local/g16/l202.exe)
                          Input orientation:                          
 ---------------------------------------------------------------------
 Center     Atomic      Atomic             Coordinates (Angstroms)
 Number     Number       Type             X           Y           Z
 ---------------------------------------------------------------------
      1          8           0       -0.047427   -0.000000    0.033518
      2          6           0       -0.005694   -0.000000    1.435320
      3          1           0        1.039449    0.000000    1.712802
      4          1           0       -0.485229    0.888466    1.840564
      5          1           0       -0.485229   -0.888466    1.840565
      6          6           0       -1.354893   -0.000001   -0.473753
      7          1           0       -1.267583   -0.000001   -1.551573
      8          1           0       -1.896964   -0.888468   -0.156996
      9          1           0       -1.896966    0.888464   -0.156996
 ---------------------------------------------------------------------
                    Distance matrix (angstroms):
                    1          2          3          4          5
     1  O    0.000000
     2  C    1.402423   0.000000
     3  H    2.000323   1.081351   0.000000
     4  H    2.060694   1.087910   1.769276   0.000000
     5  H    2.060694   1.087910   1.769276   1.776932   0.000000
     6  C    1.402423   2.337712   3.242513   2.627118   2.627118
     7  H    2.000323   3.242513   3.997316   3.592777   3.592777
     8  H    2.060694   2.627118   3.592777   3.023365   2.446068
     9  H    2.060694   2.627118   3.592777   2.446068   3.023364
                    6          7          8          9
     6  C    0.000000
     7  H    1.081351   0.000000
     8  H    1.087910   1.769276   0.000000
     9  H    1.087910   1.769276   1.776932   0.000000
 Stoichiometry    C2H6O
 Framework group  C2[C2(O),X(C2H6)]
 Deg. of freedom    11
 Full point group                 C2      NOp   2
 RotChk:  IX=0 Diff= 1.52D-07
 Largest Abelian subgroup         C2      NOp   2
 Largest concise Abelian subgroup C2      NOp   2
                         Standard orientation:                         
 ---------------------------------------------------------------------
 Center     Atomic      Atomic             Coordinates (Angstroms)
 Number     Number       Type             X           Y           Z
 ---------------------------------------------------------------------
      1          8           0       -0.000000   -0.000000    0.579407
      2          6           0        0.000000    1.168856   -0.195556
      3          1           0       -0.000001    1.998658    0.497804
      4          1           0        0.888466    1.223034   -0.821048
      5          1           0       -0.888466    1.223034   -0.821049
      6          6           0       -0.000000   -1.168856   -0.195556
      7          1           0        0.000001   -1.998658    0.497804
      8          1           0       -0.888466   -1.223034   -0.821048
      9          1           0        0.888466   -1.223034   -0.821049
 ---------------------------------------------------------------------
 Rotational constants (GHZ):          40.1889445          10.0967912           8.9822616
 Leave Link  202 at Mon Oct 10 14:44:13 2022, MaxMem=   104857600 cpu:               0.0 elap:               0.0
 (Enter /usr/local/g16/l301.exe)
 Standard basis: 6-311++G(d,p) (5D, 7F)
 Ernie: Thresh=  0.10000D-02 Tol=  0.10000D-05 Strict=F.
 There are    57 symmetry adapted cartesian basis functions of A   symmetry.
 There are    54 symmetry adapted cartesian basis functions of B   symmetry.
 There are    55 symmetry adapted basis functions of A   symmetry.
 There are    53 symmetry adapted basis functions of B   symmetry.
   108 basis functions,   162 primitive gaussians,   111 cartesian basis functions
    13 alpha electrons       13 beta electrons
       nuclear repulsion energy        84.4584211944 Hartrees.
 IExCor=    0 DFT=F Ex=HF Corr=None ExCW=0 ScaHFX=  1.000000
 ScaDFX=  1.000000  1.000000  1.000000  1.000000 ScalE2=  1.000000  1.000000
 IRadAn=      5 IRanWt=     -1 IRanGd=            0 ICorTp=0 IEmpDi=  4
 NAtoms=    9 NActive=    9 NUniq=    5 SFac= 3.24D+00 NAtFMM=   60 NAOKFM=F Big=F
 Integral buffers will be    131072 words long.
 Raffenetti 1 integral format.
 Two-electron integral symmetry is turned on.
 Leave Link  301 at Mon Oct 10 14:44:13 2022, MaxMem=   104857600 cpu:               0.3 elap:               0.0
 (Enter /usr/local/g16/l302.exe)
 NPDir=0 NMtPBC=     1 NCelOv=     1 NCel=       1 NClECP=     1 NCelD=      1
         NCelK=      1 NCelE2=     1 NClLst=     1 CellRange=     0.0.
 One-electron integrals computed using PRISM.
 One-electron integral symmetry used in STVInt
 NBasis=   108 RedAO= T EigKep=  3.70D-04  NBF=    55    53
 NBsUse=   108 1.00D-06 EigRej= -1.00D+00 NBFU=    55    53
 Leave Link  302 at Mon Oct 10 14:44:14 2022, MaxMem=   104857600 cpu:               0.8 elap:               0.1
 (Enter /usr/local/g16/l303.exe)
 DipDrv:  MaxL=1.
 Leave Link  303 at Mon Oct 10 14:44:14 2022, MaxMem=   104857600 cpu:               0.2 elap:               0.0
 (Enter /usr/local/g16/l401.exe)
 Initial guess from the checkpoint file:  "ch3och3.chk"
 B after Tr=     0.000000    0.000000    0.000000
         Rot=    1.000000    0.000000   -0.000000    0.000000 Ang=   0.00 deg.
 Guess basis will be translated and rotated to current coordinates.
 JPrj=2 DoOrth=T DoCkMO=T.
 Initial guess orbital symmetries:
       Occupied  (A) (B) (A) (A) (B) (A) (B) (A) (B) (A) (B) (A)
                 (B)
       Virtual   (A) (B) (B) (A) (B) (A) (A) (B) (B) (A) (A) (A)
                 (B) (B) (A) (B) (A) (A) (A) (B) (A) (B) (B) (B)
                 (B) (A) (A) (A) (B) (B) (A) (B) (B) (B) (A) (A)
                 (B) (A) (A) (B) (A) (B) (B) (A) (B) (A) (B) (B)
                 (A) (B) (A) (B) (A) (A) (A) (A) (B) (A) (B) (B)
                 (B) (A) (B) (A) (A) (B) (B) (A) (B) (A) (A) (B)
                 (A) (A) (B) (B) (A) (B) (A) (B) (B) (A) (A) (B)
                 (A) (A) (B) (A) (B) (B) (A) (B) (A) (B) (A)
 The electronic state of the initial guess is 1-A.
 Generating alternative initial guess.
 ExpMin= 3.60D-02 ExpMax= 8.59D+03 ExpMxC= 1.30D+03 IAcc=3 IRadAn=         5 AccDes= 0.00D+00
 Harris functional with IExCor=  205 and IRadAn=       5 diagonalized for initial guess.
 HarFok:  IExCor=  205 AccDes= 0.00D+00 IRadAn=         5 IDoV= 1 UseB2=F ITyADJ=14
 ICtDFT=  3500011 ScaDFX=  1.000000  1.000000  1.000000  1.000000
 FoFCou: FMM=F IPFlag=           0 FMFlag=      100000 FMFlg1=           0
         NFxFlg=           0 DoJE=T BraDBF=F KetDBF=T FulRan=T
         wScrn=  0.000000 ICntrl=       500 IOpCl=  0 I1Cent=   200000004 NGrid=           0
         NMat0=    1 NMatS0=      1 NMatT0=    0 NMatD0=    1 NMtDS0=    0 NMtDT0=    0
 Petite list used in FoFCou.
 Harris En= -154.376921306326    
 Leave Link  401 at Mon Oct 10 14:44:14 2022, MaxMem=   104857600 cpu:               1.7 elap:               0.2
 (Enter /usr/local/g16/l502.exe)
 Keep R1 ints in memory in symmetry-blocked form, NReq=26004190.
 FoFCou: FMM=F IPFlag=           0 FMFlag=           0 FMFlg1=           0
         NFxFlg=           0 DoJE=F BraDBF=F KetDBF=F FulRan=T
         wScrn=  0.000000 ICntrl=       600 IOpCl=  0 I1Cent=           0 NGrid=           0
         NMat0=    1 NMatS0=   5886 NMatT0=    0 NMatD0=    1 NMtDS0=    0 NMtDT0=    0
 Petite list used in FoFCou.
 Closed shell SCF:
 Using DIIS extrapolation, IDIIS=  1040.
 NGot=   104857600 LenX=    96152446 LenY=    96139684
 Requested convergence on RMS density matrix=1.00D-08 within 128 cycles.
 Requested convergence on MAX density matrix=1.00D-06.
 Requested convergence on             energy=1.00D-06.
 No special actions if energy rises.

 Cycle   1  Pass 1  IDiag  1:
 E= -154.108449697986    
 DIIS: error= 4.60D-03 at cycle   1 NSaved=   1.
 NSaved= 1 IEnMin= 1 EnMin= -154.108449697986     IErMin= 1 ErrMin= 4.60D-03
 ErrMax= 4.60D-03  0.00D+00 EMaxC= 1.00D-01 BMatC= 2.51D-03 BMatP= 2.51D-03
 IDIUse=3 WtCom= 9.54D-01 WtEn= 4.60D-02
 Coeff-Com:  0.100D+01
 Coeff-En:   0.100D+01
 Coeff:      0.100D+01
 Gap=     0.466 Goal=   None    Shift=    0.000
 GapD=    0.466 DampG=2.000 DampE=1.000 DampFc=2.0000 IDamp=-1.
 RMSDP=4.64D-04 MaxDP=6.09D-03              OVMax= 1.63D-02

 Cycle   2  Pass 1  IDiag  1:
 E= -154.111651427015     Delta-E=       -0.003201729028 Rises=F Damp=F
 DIIS: error= 1.81D-03 at cycle   2 NSaved=   2.
 NSaved= 2 IEnMin= 2 EnMin= -154.111651427015     IErMin= 2 ErrMin= 1.81D-03
 ErrMax= 1.81D-03  0.00D+00 EMaxC= 1.00D-01 BMatC= 1.80D-04 BMatP= 2.51D-03
 IDIUse=3 WtCom= 9.82D-01 WtEn= 1.81D-02
 Coeff-Com: -0.207D+00 0.121D+01
 Coeff-En:   0.000D+00 0.100D+01
 Coeff:     -0.204D+00 0.120D+01
 Gap=     0.464 Goal=   None    Shift=    0.000
 RMSDP=1.39D-04 MaxDP=2.29D-03 DE=-3.20D-03 OVMax= 6.12D-03

 Cycle   3  Pass 1  IDiag  1:
 E= -154.111967514828     Delta-E=       -0.000316087813 Rises=F Damp=F
 DIIS: error= 8.25D-04 at cycle   3 NSaved=   3.
 NSaved= 3 IEnMin= 3 EnMin= -154.111967514828     IErMin= 3 ErrMin= 8.25D-04
 ErrMax= 8.25D-04  0.00D+00 EMaxC= 1.00D-01 BMatC= 2.59D-05 BMatP= 1.80D-04
 IDIUse=3 WtCom= 9.92D-01 WtEn= 8.25D-03
 Coeff-Com: -0.904D-01 0.301D+00 0.790D+00
 Coeff-En:   0.000D+00 0.000D+00 0.100D+01
 Coeff:     -0.897D-01 0.298D+00 0.791D+00
 Gap=     0.466 Goal=   None    Shift=    0.000
 RMSDP=3.83D-05 MaxDP=7.39D-04 DE=-3.16D-04 OVMax= 1.68D-03

 Cycle   4  Pass 1  IDiag  1:
 E= -154.111993894228     Delta-E=       -0.000026379400 Rises=F Damp=F
 DIIS: error= 2.69D-04 at cycle   4 NSaved=   4.
 NSaved= 4 IEnMin= 4 EnMin= -154.111993894228     IErMin= 4 ErrMin= 2.69D-04
 ErrMax= 2.69D-04  0.00D+00 EMaxC= 1.00D-01 BMatC= 2.26D-06 BMatP= 2.59D-05
 IDIUse=3 WtCom= 9.97D-01 WtEn= 2.69D-03
 Coeff-Com:  0.183D-01-0.130D+00 0.897D-01 0.102D+01
 Coeff-En:   0.000D+00 0.000D+00 0.000D+00 0.100D+01
 Coeff:      0.182D-01-0.130D+00 0.894D-01 0.102D+01
 Gap=     0.465 Goal=   None    Shift=    0.000
 RMSDP=2.13D-05 MaxDP=3.31D-04 DE=-2.64D-05 OVMax= 6.77D-04

 Cycle   5  Pass 1  IDiag  1:
 E= -154.111997276245     Delta-E=       -0.000003382017 Rises=F Damp=F
 DIIS: error= 3.07D-05 at cycle   5 NSaved=   5.
 NSaved= 5 IEnMin= 5 EnMin= -154.111997276245     IErMin= 5 ErrMin= 3.07D-05
 ErrMax= 3.07D-05  0.00D+00 EMaxC= 1.00D-01 BMatC= 7.32D-08 BMatP= 2.26D-06
 IDIUse=1 WtCom= 1.00D+00 WtEn= 0.00D+00
 Coeff-Com:  0.450D-02-0.236D-01-0.199D-01 0.901D-01 0.949D+00
 Coeff:      0.450D-02-0.236D-01-0.199D-01 0.901D-01 0.949D+00
 Gap=     0.465 Goal=   None    Shift=    0.000
 RMSDP=4.58D-06 MaxDP=4.61D-05 DE=-3.38D-06 OVMax= 1.70D-04

 Cycle   6  Pass 1  IDiag  1:
 E= -154.111997414198     Delta-E=       -0.000000137953 Rises=F Damp=F
 DIIS: error= 1.15D-05 at cycle   6 NSaved=   6.
 NSaved= 6 IEnMin= 6 EnMin= -154.111997414198     IErMin= 6 ErrMin= 1.15D-05
 ErrMax= 1.15D-05  0.00D+00 EMaxC= 1.00D-01 BMatC= 6.22D-09 BMatP= 7.32D-08
 IDIUse=1 WtCom= 1.00D+00 WtEn= 0.00D+00
 Coeff-Com: -0.135D-02 0.105D-01-0.949D-02-0.891D-01 0.385D-01 0.105D+01
 Coeff:     -0.135D-02 0.105D-01-0.949D-02-0.891D-01 0.385D-01 0.105D+01
 Gap=     0.465 Goal=   None    Shift=    0.000
 RMSDP=1.82D-06 MaxDP=2.90D-05 DE=-1.38D-07 OVMax= 7.61D-05

 Cycle   7  Pass 1  IDiag  1:
 E= -154.111997429461     Delta-E=       -0.000000015262 Rises=F Damp=F
 DIIS: error= 1.91D-06 at cycle   7 NSaved=   7.
 NSaved= 7 IEnMin= 7 EnMin= -154.111997429461     IErMin= 7 ErrMin= 1.91D-06
 ErrMax= 1.91D-06  0.00D+00 EMaxC= 1.00D-01 BMatC= 3.44D-10 BMatP= 6.22D-09
 IDIUse=1 WtCom= 1.00D+00 WtEn= 0.00D+00
 Coeff-Com: -0.623D-04-0.216D-03 0.224D-02 0.113D-01-0.609D-01-0.207D+00
 Coeff-Com:  0.125D+01
 Coeff:     -0.623D-04-0.216D-03 0.224D-02 0.113D-01-0.609D-01-0.207D+00
 Coeff:      0.125D+01
 Gap=     0.465 Goal=   None    Shift=    0.000
 RMSDP=4.55D-07 MaxDP=7.98D-06 DE=-1.53D-08 OVMax= 2.48D-05

 Cycle   8  Pass 1  IDiag  1:
 E= -154.111997430449     Delta-E=       -0.000000000989 Rises=F Damp=F
 DIIS: error= 3.60D-07 at cycle   8 NSaved=   8.
 NSaved= 8 IEnMin= 8 EnMin= -154.111997430449     IErMin= 8 ErrMin= 3.60D-07
 ErrMax= 3.60D-07  0.00D+00 EMaxC= 1.00D-01 BMatC= 1.38D-11 BMatP= 3.44D-10
 IDIUse=1 WtCom= 1.00D+00 WtEn= 0.00D+00
 Coeff-Com:  0.742D-04-0.482D-03 0.510D-04 0.267D-02 0.885D-02-0.130D-01
 Coeff-Com: -0.215D+00 0.122D+01
 Coeff:      0.742D-04-0.482D-03 0.510D-04 0.267D-02 0.885D-02-0.130D-01
 Coeff:     -0.215D+00 0.122D+01
 Gap=     0.465 Goal=   None    Shift=    0.000
 RMSDP=7.64D-08 MaxDP=1.36D-06 DE=-9.89D-10 OVMax= 4.13D-06

 Cycle   9  Pass 1  IDiag  1:
 E= -154.111997430488     Delta-E=       -0.000000000039 Rises=F Damp=F
 DIIS: error= 1.26D-07 at cycle   9 NSaved=   9.
 NSaved= 9 IEnMin= 9 EnMin= -154.111997430488     IErMin= 9 ErrMin= 1.26D-07
 ErrMax= 1.26D-07  0.00D+00 EMaxC= 1.00D-01 BMatC= 7.45D-13 BMatP= 1.38D-11
 IDIUse=1 WtCom= 1.00D+00 WtEn= 0.00D+00
 Coeff-Com: -0.140D-04 0.128D-03-0.164D-03-0.126D-02 0.153D-02 0.149D-01
 Coeff-Com: -0.298D-01-0.223D+00 0.124D+01
 Coeff:     -0.140D-04 0.128D-03-0.164D-03-0.126D-02 0.153D-02 0.149D-01
 Coeff:     -0.298D-01-0.223D+00 0.124D+01
 Gap=     0.465 Goal=   None    Shift=    0.000
 RMSDP=1.88D-08 MaxDP=2.33D-07 DE=-3.88D-11 OVMax= 7.04D-07

 Cycle  10  Pass 1  IDiag  1:
 E= -154.111997430490     Delta-E=       -0.000000000001 Rises=F Damp=F
 DIIS: error= 3.62D-08 at cycle  10 NSaved=  10.
 NSaved=10 IEnMin=10 EnMin= -154.111997430490     IErMin=10 ErrMin= 3.62D-08
 ErrMax= 3.62D-08  0.00D+00 EMaxC= 1.00D-01 BMatC= 2.70D-14 BMatP= 7.45D-13
 IDIUse=1 WtCom= 1.00D+00 WtEn= 0.00D+00
 Coeff-Com:  0.659D-06-0.127D-04 0.352D-04 0.217D-03-0.669D-03-0.317D-02
 Coeff-Com:  0.161D-01 0.487D-02-0.294D+00 0.128D+01
 Coeff:      0.659D-06-0.127D-04 0.352D-04 0.217D-03-0.669D-03-0.317D-02
 Coeff:      0.161D-01 0.487D-02-0.294D+00 0.128D+01
 Gap=     0.465 Goal=   None    Shift=    0.000
 RMSDP=3.98D-09 MaxDP=7.12D-08 DE=-1.36D-12 OVMax= 1.52D-07

 SCF Done:  E(RHF) =  -154.111997430     A.U. after   10 cycles
            NFock= 10  Conv=0.40D-08     -V/T= 2.0003
 KE= 1.540589663786D+02 PE=-5.306722907411D+02 EE= 1.380429057375D+02
 Leave Link  502 at Mon Oct 10 14:44:14 2022, MaxMem=   104857600 cpu:               3.0 elap:               0.3
 (Enter /usr/local/g16/l701.exe)
 ... and contract with generalized density number  0.
 Compute integral first derivatives.
 Leave Link  701 at Mon Oct 10 14:44:14 2022, MaxMem=   104857600 cpu:               0.8 elap:               0.1
 (Enter /usr/local/g16/l702.exe)
 L702 exits ... SP integral derivatives will be done elsewhere.
 Leave Link  702 at Mon Oct 10 14:44:14 2022, MaxMem=   104857600 cpu:               0.1 elap:               0.0
 (Enter /usr/local/g16/l703.exe)
 Integral derivatives from FoFJK, PRISM(SPDF).
 Compute integral first derivatives, UseDBF=F ICtDFT=           0.
 Calling FoFJK, ICntrl=      2127 FMM=F ISym2X=1 I1Cent= 0 IOpClX= 0 NMat=1 NMatS=1 NMatT=0.
 FoFJK:  IHMeth= 1 ICntrl=    2127 DoSepK=F KAlg= 0 I1Cent=           0 FoldK=F
 IRaf=         0 NMat=       1 IRICut=       1 DoRegI=T DoRafI=F ISym2E= 1 IDoP0=0 IntGTp=1.
 FoFCou: FMM=F IPFlag=           0 FMFlag=      100000 FMFlg1=         800
         NFxFlg=           0 DoJE=F BraDBF=F KetDBF=F FulRan=T
         wScrn=  0.000000 ICntrl=      2127 IOpCl=  0 I1Cent=           0 NGrid=           0
         NMat0=    1 NMatS0=      1 NMatT0=    0 NMatD0=    1 NMtDS0=    0 NMtDT0=    0
 Petite list used in FoFCou.
 Leave Link  703 at Mon Oct 10 14:44:14 2022, MaxMem=   104857600 cpu:               1.6 elap:               0.1
 (Enter /usr/local/g16/l716.exe)
 Dipole        = 4.44089210D-16 0.00000000D+00-6.26849857D-01
 ***** Axes restored to original set *****
 -------------------------------------------------------------------
 Center     Atomic                   Forces (Hartrees/Bohr)
 Number     Number              X              Y              Z
 -------------------------------------------------------------------
      1        8          -0.009984269   -0.000000008    0.007056183
      2        6           0.004641711    0.000000009   -0.010441774
      3        1          -0.000207384    0.000000003    0.002383599
      4        1          -0.000601411   -0.000030954    0.001019432
      5        1          -0.000601411    0.000030951    0.001019417
      6        6           0.011392284    0.000000004   -0.000889933
      7        1          -0.002316106   -0.000000005   -0.000600173
      8        1          -0.001161714    0.000030953    0.000226622
      9        1          -0.001161700   -0.000030953    0.000226627
 -------------------------------------------------------------------
 Cartesian Forces:  Max     0.011392284 RMS     0.003979969
 Leave Link  716 at Mon Oct 10 14:44:14 2022, MaxMem=   104857600 cpu:               0.1 elap:               0.0
 (Enter /usr/local/g16/l103.exe)

 GradGradGradGradGradGradGradGradGradGradGradGradGradGradGradGradGradGrad
 Berny optimization.
 Using GEDIIS/GDIIS optimizer.
 FormGI is forming the generalized inverse of G from B-inverse, IUseBI=4.
 Internal  Forces:  Max     0.005920497 RMS     0.002265259
 Search for a local minimum.
 Step number   2 out of a maximum of   37
 All quantities printed in internal units (Hartrees-Bohrs-Radians)
 RMS Force = .22653D-02 SwitMx=.10000D-02 MixMth= 1
 Mixed Optimization -- RFO/linear search
 Update second derivatives using D2CorX and points    1    2
 DE= -3.67D-03 DEPred=-3.42D-03 R= 1.07D+00
 TightC=F SS=  1.41D+00  RLast= 1.55D-01 DXNew= 5.0454D-01 4.6503D-01
 Trust test= 1.07D+00 RLast= 1.55D-01 DXMaxT set to 4.65D-01
 ITU=  1  0
 Use linear search instead of GDIIS.
     Eigenvalues ---    0.01295   0.01295   0.10060   0.10563   0.10563
     Eigenvalues ---    0.10588   0.15238   0.16000   0.16000   0.16000
     Eigenvalues ---    0.16000   0.18202   0.22572   0.34842   0.37230
     Eigenvalues ---    0.37230   0.37230   0.37230   0.37230   0.39578
     Eigenvalues ---    0.40989
 RFO step:  Lambda=-6.09330678D-04 EMin= 1.29493790D-02
 Quartic linear search produced a step of  0.10465.
 Iteration  1 RMS(Cart)=  0.01095334 RMS(Int)=  0.00012568
 Iteration  2 RMS(Cart)=  0.00020031 RMS(Int)=  0.00005603
 Iteration  3 RMS(Cart)=  0.00000001 RMS(Int)=  0.00005603
 ITry= 1 IFail=0 DXMaxC= 2.34D-02 DCOld= 1.00D+10 DXMaxT= 4.65D-01 DXLimC= 3.00D+00 Rises=F
 ClnCor:  largest displacement from symmetrization is 4.55D-11 for atom     7.
 Variable       Old X    -DE/DX   Delta X   Delta X   Delta X     New X
                                 (Linear)    (Quad)   (Total)
    R1        2.65020  -0.00592  -0.00545  -0.01526  -0.02071   2.62948
    R2        2.65020  -0.00592  -0.00545  -0.01526  -0.02071   2.62948
    R3        2.04346   0.00041   0.00224   0.00094   0.00318   2.04664
    R4        2.05585   0.00062   0.00354   0.00139   0.00493   2.06079
    R5        2.05585   0.00062   0.00354   0.00139   0.00493   2.06079
    R6        2.04346   0.00041   0.00224   0.00094   0.00318   2.04664
    R7        2.05585   0.00062   0.00354   0.00139   0.00493   2.06079
    R8        2.05585   0.00062   0.00354   0.00139   0.00493   2.06079
    A1        1.97066   0.00515   0.00623   0.02179   0.02802   1.99868
    A2        1.86007   0.00359  -0.00529   0.02789   0.02252   1.88259
    A3        1.93822   0.00027   0.00289   0.00014   0.00294   1.94117
    A4        1.93822   0.00027   0.00289   0.00014   0.00294   1.94117
    A5        1.90757  -0.00123  -0.00032  -0.00603  -0.00643   1.90113
    A6        1.90757  -0.00123  -0.00032  -0.00603  -0.00643   1.90113
    A7        1.91124  -0.00161   0.00006  -0.01528  -0.01531   1.89593
    A8        1.86007   0.00359  -0.00529   0.02789   0.02252   1.88259
    A9        1.93822   0.00027   0.00289   0.00014   0.00294   1.94117
   A10        1.93822   0.00027   0.00289   0.00014   0.00294   1.94117
   A11        1.90757  -0.00123  -0.00032  -0.00603  -0.00643   1.90113
   A12        1.90757  -0.00123  -0.00032  -0.00603  -0.00643   1.90113
   A13        1.91124  -0.00161   0.00006  -0.01528  -0.01531   1.89593
    D1        3.14159   0.00000   0.00000   0.00000   0.00000   3.14159
    D2       -1.06560   0.00084  -0.00193   0.00966   0.00773  -1.05787
    D3        1.06560  -0.00084   0.00193  -0.00966  -0.00773   1.05787
    D4        3.14159   0.00000   0.00000   0.00000   0.00000   3.14159
    D5       -1.06560   0.00084  -0.00193   0.00966   0.00773  -1.05787
    D6        1.06560  -0.00084   0.00193  -0.00966  -0.00773   1.05787
         Item               Value     Threshold  Converged?
 Maximum Force            0.005920     0.000015     NO 
 RMS     Force            0.002265     0.000010     NO 
 Maximum Displacement     0.023424     0.000060     NO 
 RMS     Displacement     0.010831     0.000040     NO 
 Predicted change in Energy=-3.398598D-04
 Lowest energy point so far.  Saving SCF results.
 GradGradGradGradGradGradGradGradGradGradGradGradGradGradGradGradGradGrad

 Leave Link  103 at Mon Oct 10 14:44:14 2022, MaxMem=   104857600 cpu:               0.3 elap:               0.0
 (Enter /usr/local/g16/l202.exe)
                          Input orientation:                          
 ---------------------------------------------------------------------
 Center     Atomic      Atomic             Coordinates (Angstroms)
 Number     Number       Type             X           Y           Z
 ---------------------------------------------------------------------
      1          8           0       -0.059822   -0.000000    0.042278
      2          6           0        0.001067   -0.000000    1.432408
      3          1           0        1.045434    0.000000    1.719218
      4          1           0       -0.480048    0.885754    1.848586
      5          1           0       -0.480047   -0.885755    1.848586
      6          6           0       -1.349891   -0.000001   -0.479153
      7          1           0       -1.271633   -0.000001   -1.559357
      8          1           0       -1.902796   -0.885757   -0.164558
      9          1           0       -1.902798    0.885753   -0.164557
 ---------------------------------------------------------------------
                    Distance matrix (angstroms):
                    1          2          3          4          5
     1  O    0.000000
     2  C    1.391463   0.000000
     3  H    2.008412   1.083035   0.000000
     4  H    2.055212   1.090521   1.768726   0.000000
     5  H    2.055212   1.090521   1.768726   1.771510   0.000000
     6  C    1.391463   2.340759   3.251219   2.638098   2.638097
     7  H    2.008412   3.251219   4.014705   3.609050   3.609050
     8  H    2.055212   2.638098   3.609050   3.035657   2.465149
     9  H    2.055212   2.638097   3.609050   2.465149   3.035656
                    6          7          8          9
     6  C    0.000000
     7  H    1.083035   0.000000
     8  H    1.090521   1.768726   0.000000
     9  H    1.090521   1.768726   1.771510   0.000000
 Stoichiometry    C2H6O
 Framework group  C2[C2(O),X(C2H6)]
 Deg. of freedom    11
 Full point group                 C2      NOp   2
 RotChk:  IX=0 Diff= 2.93D-08
 Largest Abelian subgroup         C2      NOp   2
 Largest concise Abelian subgroup C2      NOp   2
                         Standard orientation:                         
 ---------------------------------------------------------------------
 Center     Atomic      Atomic             Coordinates (Angstroms)
 Number     Number       Type             X           Y           Z
 ---------------------------------------------------------------------
      1          8           0        0.000000    0.000000    0.565545
      2          6           0       -0.000000    1.170380   -0.187037
      3          1           0       -0.000000    2.007352    0.500306
      4          1           0        0.885755    1.232575   -0.820130
      5          1           0       -0.885755    1.232575   -0.820131
      6          6           0       -0.000000   -1.170380   -0.187037
      7          1           0        0.000000   -2.007352    0.500306
      8          1           0       -0.885755   -1.232575   -0.820130
      9          1           0        0.885755   -1.232575   -0.820131
 ---------------------------------------------------------------------
 Rotational constants (GHZ):          41.3451839          10.0504467           8.9953848
 Leave Link  202 at Mon Oct 10 14:44:14 2022, MaxMem=   104857600 cpu:               0.0 elap:               0.0
 (Enter /usr/local/g16/l301.exe)
 Standard basis: 6-311++G(d,p) (5D, 7F)
 Ernie: Thresh=  0.10000D-02 Tol=  0.10000D-05 Strict=F.
 There are    57 symmetry adapted cartesian basis functions of A   symmetry.
 There are    54 symmetry adapted cartesian basis functions of B   symmetry.
 There are    55 symmetry adapted basis functions of A   symmetry.
 There are    53 symmetry adapted basis functions of B   symmetry.
   108 basis functions,   162 primitive gaussians,   111 cartesian basis functions
    13 alpha electrons       13 beta electrons
       nuclear repulsion energy        84.6697662730 Hartrees.
 IExCor=    0 DFT=F Ex=HF Corr=None ExCW=0 ScaHFX=  1.000000
 ScaDFX=  1.000000  1.000000  1.000000  1.000000 ScalE2=  1.000000  1.000000
 IRadAn=      5 IRanWt=     -1 IRanGd=            0 ICorTp=0 IEmpDi=  4
 NAtoms=    9 NActive=    9 NUniq=    5 SFac= 3.24D+00 NAtFMM=   60 NAOKFM=F Big=F
 Integral buffers will be    131072 words long.
 Raffenetti 1 integral format.
 Two-electron integral symmetry is turned on.
 Leave Link  301 at Mon Oct 10 14:44:14 2022, MaxMem=   104857600 cpu:               0.3 elap:               0.0
 (Enter /usr/local/g16/l302.exe)
 NPDir=0 NMtPBC=     1 NCelOv=     1 NCel=       1 NClECP=     1 NCelD=      1
         NCelK=      1 NCelE2=     1 NClLst=     1 CellRange=     0.0.
 One-electron integrals computed using PRISM.
 One-electron integral symmetry used in STVInt
 NBasis=   108 RedAO= T EigKep=  3.67D-04  NBF=    55    53
 NBsUse=   108 1.00D-06 EigRej= -1.00D+00 NBFU=    55    53
 Leave Link  302 at Mon Oct 10 14:44:15 2022, MaxMem=   104857600 cpu:               0.8 elap:               0.1
 (Enter /usr/local/g16/l303.exe)
 DipDrv:  MaxL=1.
 Leave Link  303 at Mon Oct 10 14:44:15 2022, MaxMem=   104857600 cpu:               0.2 elap:               0.0
 (Enter /usr/local/g16/l401.exe)
 Initial guess from the checkpoint file:  "ch3och3.chk"
 B after Tr=    -0.000000   -0.000000    0.000000
         Rot=    1.000000    0.000000    0.000000    0.000000 Ang=   0.00 deg.
 Guess basis will be translated and rotated to current coordinates.
 JPrj=2 DoOrth=T DoCkMO=T.
 Initial guess orbital symmetries:
       Occupied  (A) (B) (A) (A) (B) (A) (B) (A) (B) (A) (B) (A)
                 (B)
       Virtual   (A) (B) (B) (A) (B) (A) (A) (B) (B) (A) (A) (A)
                 (B) (B) (A) (B) (A) (A) (B) (A) (A) (B) (B) (B)
                 (B) (A) (A) (A) (B) (B) (A) (B) (B) (A) (A) (B)
                 (A) (B) (A) (B) (A) (B) (B) (A) (B) (A) (B) (B)
                 (A) (A) (B) (B) (A) (A) (A) (A) (B) (A) (B) (B)
                 (B) (A) (B) (A) (A) (B) (A) (B) (A) (A) (B) (A)
                 (B) (B) (A) (B) (A) (B) (A) (B) (B) (A) (A) (B)
                 (A) (B) (A) (B) (A) (B) (A) (B) (A) (B) (A)
 The electronic state of the initial guess is 1-A.
 Generating alternative initial guess.
 ExpMin= 3.60D-02 ExpMax= 8.59D+03 ExpMxC= 1.30D+03 IAcc=3 IRadAn=         5 AccDes= 0.00D+00
 Harris functional with IExCor=  205 and IRadAn=       5 diagonalized for initial guess.
 HarFok:  IExCor=  205 AccDes= 0.00D+00 IRadAn=         5 IDoV= 1 UseB2=F ITyADJ=14
 ICtDFT=  3500011 ScaDFX=  1.000000  1.000000  1.000000  1.000000
 FoFCou: FMM=F IPFlag=           0 FMFlag=      100000 FMFlg1=           0
         NFxFlg=           0 DoJE=T BraDBF=F KetDBF=T FulRan=T
         wScrn=  0.000000 ICntrl=       500 IOpCl=  0 I1Cent=   200000004 NGrid=           0
         NMat0=    1 NMatS0=      1 NMatT0=    0 NMatD0=    1 NMtDS0=    0 NMtDT0=    0
 Petite list used in FoFCou.
 Harris En= -154.376926863171    
 Leave Link  401 at Mon Oct 10 14:44:15 2022, MaxMem=   104857600 cpu:               1.7 elap:               0.2
 (Enter /usr/local/g16/l502.exe)
 Keep R1 ints in memory in symmetry-blocked form, NReq=26004190.
 FoFCou: FMM=F IPFlag=           0 FMFlag=           0 FMFlg1=           0
         NFxFlg=           0 DoJE=F BraDBF=F KetDBF=F FulRan=T
         wScrn=  0.000000 ICntrl=       600 IOpCl=  0 I1Cent=           0 NGrid=           0
         NMat0=    1 NMatS0=   5886 NMatT0=    0 NMatD0=    1 NMtDS0=    0 NMtDT0=    0
 Petite list used in FoFCou.
 Closed shell SCF:
 Using DIIS extrapolation, IDIIS=  1040.
 NGot=   104857600 LenX=    96152446 LenY=    96139684
 Requested convergence on RMS density matrix=1.00D-08 within 128 cycles.
 Requested convergence on MAX density matrix=1.00D-06.
 Requested convergence on             energy=1.00D-06.
 No special actions if energy rises.

 Cycle   1  Pass 1  IDiag  1:
 E= -154.112016817104    
 DIIS: error= 1.36D-03 at cycle   1 NSaved=   1.
 NSaved= 1 IEnMin= 1 EnMin= -154.112016817104     IErMin= 1 ErrMin= 1.36D-03
 ErrMax= 1.36D-03  0.00D+00 EMaxC= 1.00D-01 BMatC= 2.21D-04 BMatP= 2.21D-04
 IDIUse=3 WtCom= 9.86D-01 WtEn= 1.36D-02
 Coeff-Com:  0.100D+01
 Coeff-En:   0.100D+01
 Coeff:      0.100D+01
 Gap=     0.464 Goal=   None    Shift=    0.000
 GapD=    0.464 DampG=2.000 DampE=1.000 DampFc=2.0000 IDamp=-1.
 RMSDP=1.58D-04 MaxDP=2.41D-03              OVMax= 3.90D-03

 Cycle   2  Pass 1  IDiag  1:
 E= -154.112275980104     Delta-E=       -0.000259163000 Rises=F Damp=F
 DIIS: error= 3.52D-04 at cycle   2 NSaved=   2.
 NSaved= 2 IEnMin= 2 EnMin= -154.112275980104     IErMin= 2 ErrMin= 3.52D-04
 ErrMax= 3.52D-04  0.00D+00 EMaxC= 1.00D-01 BMatC= 1.36D-05 BMatP= 2.21D-04
 IDIUse=3 WtCom= 9.96D-01 WtEn= 3.52D-03
 Coeff-Com: -0.173D+00 0.117D+01
 Coeff-En:   0.000D+00 0.100D+01
 Coeff:     -0.173D+00 0.117D+01
 Gap=     0.463 Goal=   None    Shift=    0.000
 RMSDP=4.18D-05 MaxDP=1.01D-03 DE=-2.59D-04 OVMax= 1.42D-03

 Cycle   3  Pass 1  IDiag  1:
 E= -154.112298407935     Delta-E=       -0.000022427831 Rises=F Damp=F
 DIIS: error= 1.79D-04 at cycle   3 NSaved=   3.
 NSaved= 3 IEnMin= 3 EnMin= -154.112298407935     IErMin= 3 ErrMin= 1.79D-04
 ErrMax= 1.79D-04  0.00D+00 EMaxC= 1.00D-01 BMatC= 1.89D-06 BMatP= 1.36D-05
 IDIUse=3 WtCom= 9.98D-01 WtEn= 1.79D-03
 Coeff-Com: -0.790D-01 0.278D+00 0.801D+00
 Coeff-En:   0.000D+00 0.000D+00 0.100D+01
 Coeff:     -0.789D-01 0.278D+00 0.801D+00
 Gap=     0.464 Goal=   None    Shift=    0.000
 RMSDP=1.08D-05 MaxDP=2.79D-04 DE=-2.24D-05 OVMax= 4.60D-04

 Cycle   4  Pass 1  IDiag  1:
 E= -154.112300248541     Delta-E=       -0.000001840606 Rises=F Damp=F
 DIIS: error= 5.87D-05 at cycle   4 NSaved=   4.
 NSaved= 4 IEnMin= 4 EnMin= -154.112300248541     IErMin= 4 ErrMin= 5.87D-05
 ErrMax= 5.87D-05  0.00D+00 EMaxC= 1.00D-01 BMatC= 1.79D-07 BMatP= 1.89D-06
 IDIUse=1 WtCom= 1.00D+00 WtEn= 0.00D+00
 Coeff-Com:  0.141D-01-0.120D+00 0.113D+00 0.993D+00
 Coeff:      0.141D-01-0.120D+00 0.113D+00 0.993D+00
 Gap=     0.463 Goal=   None    Shift=    0.000
 RMSDP=5.09D-06 MaxDP=1.36D-04 DE=-1.84D-06 OVMax= 1.61D-04

 Cycle   5  Pass 1  IDiag  1:
 E= -154.112300469549     Delta-E=       -0.000000221008 Rises=F Damp=F
 DIIS: error= 6.32D-06 at cycle   5 NSaved=   5.
 NSaved= 5 IEnMin= 5 EnMin= -154.112300469549     IErMin= 5 ErrMin= 6.32D-06
 ErrMax= 6.32D-06  0.00D+00 EMaxC= 1.00D-01 BMatC= 2.68D-09 BMatP= 1.79D-07
 IDIUse=1 WtCom= 1.00D+00 WtEn= 0.00D+00
 Coeff-Com:  0.899D-03 0.328D-02-0.378D-01-0.106D+00 0.114D+01
 Coeff:      0.899D-03 0.328D-02-0.378D-01-0.106D+00 0.114D+01
 Gap=     0.463 Goal=   None    Shift=    0.000
 RMSDP=1.07D-06 MaxDP=1.18D-05 DE=-2.21D-07 OVMax= 3.83D-05

 Cycle   6  Pass 1  IDiag  1:
 E= -154.112300475971     Delta-E=       -0.000000006422 Rises=F Damp=F
 DIIS: error= 2.20D-06 at cycle   6 NSaved=   6.
 NSaved= 6 IEnMin= 6 EnMin= -154.112300475971     IErMin= 6 ErrMin= 2.20D-06
 ErrMax= 2.20D-06  0.00D+00 EMaxC= 1.00D-01 BMatC= 1.63D-10 BMatP= 2.68D-09
 IDIUse=1 WtCom= 1.00D+00 WtEn= 0.00D+00
 Coeff-Com: -0.607D-03 0.457D-02 0.392D-03-0.343D-01-0.123D+00 0.115D+01
 Coeff:     -0.607D-03 0.457D-02 0.392D-03-0.343D-01-0.123D+00 0.115D+01
 Gap=     0.463 Goal=   None    Shift=    0.000
 RMSDP=2.34D-07 MaxDP=2.89D-06 DE=-6.42D-09 OVMax= 7.83D-06

 Cycle   7  Pass 1  IDiag  1:
 E= -154.112300476336     Delta-E=       -0.000000000365 Rises=F Damp=F
 DIIS: error= 4.79D-07 at cycle   7 NSaved=   7.
 NSaved= 7 IEnMin= 7 EnMin= -154.112300476336     IErMin= 7 ErrMin= 4.79D-07
 ErrMax= 4.79D-07  0.00D+00 EMaxC= 1.00D-01 BMatC= 1.20D-11 BMatP= 1.63D-10
 IDIUse=1 WtCom= 1.00D+00 WtEn= 0.00D+00
 Coeff-Com: -0.822D-05-0.636D-03 0.245D-02 0.978D-02-0.639D-01-0.702D-01
 Coeff-Com:  0.112D+01
 Coeff:     -0.822D-05-0.636D-03 0.245D-02 0.978D-02-0.639D-01-0.702D-01
 Coeff:      0.112D+01
 Gap=     0.463 Goal=   None    Shift=    0.000
 RMSDP=6.72D-08 MaxDP=8.99D-07 DE=-3.65D-10 OVMax= 2.48D-06

 Cycle   8  Pass 1  IDiag  1:
 E= -154.112300476362     Delta-E=       -0.000000000026 Rises=F Damp=F
 DIIS: error= 1.11D-07 at cycle   8 NSaved=   8.
 NSaved= 8 IEnMin= 8 EnMin= -154.112300476362     IErMin= 8 ErrMin= 1.11D-07
 ErrMax= 1.11D-07  0.00D+00 EMaxC= 1.00D-01 BMatC= 1.02D-12 BMatP= 1.20D-11
 IDIUse=1 WtCom= 1.00D+00 WtEn= 0.00D+00
 Coeff-Com:  0.619D-04-0.496D-03 0.188D-03 0.431D-02 0.332D-02-0.965D-01
 Coeff-Com:  0.713D-01 0.102D+01
 Coeff:      0.619D-04-0.496D-03 0.188D-03 0.431D-02 0.332D-02-0.965D-01
 Coeff:      0.713D-01 0.102D+01
 Gap=     0.463 Goal=   None    Shift=    0.000
 RMSDP=1.92D-08 MaxDP=3.25D-07 DE=-2.62D-11 OVMax= 6.52D-07

 Cycle   9  Pass 1  IDiag  1:
 E= -154.112300476364     Delta-E=       -0.000000000002 Rises=F Damp=F
 DIIS: error= 3.95D-08 at cycle   9 NSaved=   9.
 NSaved= 9 IEnMin= 9 EnMin= -154.112300476364     IErMin= 9 ErrMin= 3.95D-08
 ErrMax= 3.95D-08  0.00D+00 EMaxC= 1.00D-01 BMatC= 5.00D-14 BMatP= 1.02D-12
 IDIUse=1 WtCom= 1.00D+00 WtEn= 0.00D+00
 Coeff-Com: -0.548D-05 0.782D-04-0.150D-03-0.864D-03 0.299D-02 0.127D-01
 Coeff-Com: -0.775D-01-0.913D-01 0.115D+01
 Coeff:     -0.548D-05 0.782D-04-0.150D-03-0.864D-03 0.299D-02 0.127D-01
 Coeff:     -0.775D-01-0.913D-01 0.115D+01
 Gap=     0.463 Goal=   None    Shift=    0.000
 RMSDP=6.52D-09 MaxDP=8.49D-08 DE=-2.02D-12 OVMax= 2.14D-07

 SCF Done:  E(RHF) =  -154.112300476     A.U. after    9 cycles
            NFock=  9  Conv=0.65D-08     -V/T= 2.0003
 KE= 1.540733853412D+02 PE=-5.310791602571D+02 EE= 1.382237081666D+02
 Leave Link  502 at Mon Oct 10 14:44:15 2022, MaxMem=   104857600 cpu:               3.2 elap:               0.3
 (Enter /usr/local/g16/l701.exe)
 ... and contract with generalized density number  0.
 Compute integral first derivatives.
 Leave Link  701 at Mon Oct 10 14:44:15 2022, MaxMem=   104857600 cpu:               0.8 elap:               0.1
 (Enter /usr/local/g16/l702.exe)
 L702 exits ... SP integral derivatives will be done elsewhere.
 Leave Link  702 at Mon Oct 10 14:44:15 2022, MaxMem=   104857600 cpu:               0.1 elap:               0.0
 (Enter /usr/local/g16/l703.exe)
 Integral derivatives from FoFJK, PRISM(SPDF).
 Compute integral first derivatives, UseDBF=F ICtDFT=           0.
 Calling FoFJK, ICntrl=      2127 FMM=F ISym2X=1 I1Cent= 0 IOpClX= 0 NMat=1 NMatS=1 NMatT=0.
 FoFJK:  IHMeth= 1 ICntrl=    2127 DoSepK=F KAlg= 0 I1Cent=           0 FoldK=F
 IRaf=         0 NMat=       1 IRICut=       1 DoRegI=T DoRafI=F ISym2E= 1 IDoP0=0 IntGTp=1.
 FoFCou: FMM=F IPFlag=           0 FMFlag=      100000 FMFlg1=         800
         NFxFlg=           0 DoJE=F BraDBF=F KetDBF=F FulRan=T
         wScrn=  0.000000 ICntrl=      2127 IOpCl=  0 I1Cent=           0 NGrid=           0
         NMat0=    1 NMatS0=      1 NMatT0=    0 NMatD0=    1 NMtDS0=    0 NMtDT0=    0
 Petite list used in FoFCou.
 Leave Link  703 at Mon Oct 10 14:44:15 2022, MaxMem=   104857600 cpu:               1.6 elap:               0.1
 (Enter /usr/local/g16/l716.exe)
 Dipole        = 2.22044605D-16-1.77635684D-15-5.99728278D-01
 ***** Axes restored to original set *****
 -------------------------------------------------------------------
 Center     Atomic                   Forces (Hartrees/Bohr)
 Number     Number              X              Y              Z
 -------------------------------------------------------------------
      1        8           0.001368673    0.000000001   -0.000967283
      2        6          -0.001114842   -0.000000005   -0.000406452
      3        1          -0.000836501   -0.000000000   -0.000538006
      4        1           0.000273657   -0.000444346    0.000204879
      5        1           0.000273660    0.000444347    0.000204883
      6        6           0.000010997    0.000000004    0.001186573
      7        1           0.000227917   -0.000000000    0.000968111
      8        1          -0.000101780    0.000444346   -0.000326350
      9        1          -0.000101781   -0.000444347   -0.000326355
 -------------------------------------------------------------------
 Cartesian Forces:  Max     0.001368673 RMS     0.000572864
 Leave Link  716 at Mon Oct 10 14:44:15 2022, MaxMem=   104857600 cpu:               0.1 elap:               0.0
 (Enter /usr/local/g16/l103.exe)

 GradGradGradGradGradGradGradGradGradGradGradGradGradGradGradGradGradGrad
 Berny optimization.
 Using GEDIIS/GDIIS optimizer.
 FormGI is forming the generalized inverse of G from B-inverse, IUseBI=4.
 Internal  Forces:  Max     0.002215399 RMS     0.000633110
 Search for a local minimum.
 Step number   3 out of a maximum of   37
 All quantities printed in internal units (Hartrees-Bohrs-Radians)
 RMS Force = .63311D-03 SwitMx=.10000D-02 MixMth= 2
 Mixed Optimization -- En-DIIS/RFO-DIIS
 Update second derivatives using D2CorX and points    1    2    3
 DE= -3.03D-04 DEPred=-3.40D-04 R= 8.92D-01
 TightC=F SS=  1.41D+00  RLast= 6.07D-02 DXNew= 7.8209D-01 1.8206D-01
 Trust test= 8.92D-01 RLast= 6.07D-02 DXMaxT set to 4.65D-01
 ITU=  1  1  0
 Use linear search instead of GDIIS.
     Eigenvalues ---    0.01295   0.01295   0.10040   0.10403   0.10403
     Eigenvalues ---    0.10713   0.13774   0.16000   0.16000   0.16000
     Eigenvalues ---    0.16000   0.19332   0.26869   0.32430   0.37230
     Eigenvalues ---    0.37230   0.37230   0.37230   0.37584   0.39598
     Eigenvalues ---    0.40989
 RFO step:  Lambda=-3.29878458D-05 EMin= 1.29493790D-02
 Quartic linear search produced a step of -0.09397.
 Iteration  1 RMS(Cart)=  0.00351699 RMS(Int)=  0.00000875
 Iteration  2 RMS(Cart)=  0.00000891 RMS(Int)=  0.00000678
 Iteration  3 RMS(Cart)=  0.00000000 RMS(Int)=  0.00000678
 ITry= 1 IFail=0 DXMaxC= 7.79D-03 DCOld= 1.00D+10 DXMaxT= 4.65D-01 DXLimC= 3.00D+00 Rises=F
 ClnCor:  largest displacement from symmetrization is 7.54D-10 for atom     7.
 Variable       Old X    -DE/DX   Delta X   Delta X   Delta X     New X
                                 (Linear)    (Quad)   (Total)
    R1        2.62948  -0.00060   0.00195  -0.00389  -0.00194   2.62754
    R2        2.62948  -0.00060   0.00195  -0.00389  -0.00194   2.62754
    R3        2.04664  -0.00095  -0.00030  -0.00200  -0.00230   2.04434
    R4        2.06079  -0.00040  -0.00046  -0.00049  -0.00095   2.05983
    R5        2.06079  -0.00040  -0.00046  -0.00049  -0.00095   2.05983
    R6        2.04664  -0.00095  -0.00030  -0.00200  -0.00230   2.04434
    R7        2.06079  -0.00040  -0.00046  -0.00049  -0.00095   2.05983
    R8        2.06079  -0.00040  -0.00046  -0.00049  -0.00095   2.05983
    A1        1.99868  -0.00222  -0.00263  -0.00455  -0.00718   1.99150
    A2        1.88259  -0.00070  -0.00212  -0.00109  -0.00320   1.87939
    A3        1.94117   0.00059  -0.00028   0.00384   0.00356   1.94473
    A4        1.94117   0.00059  -0.00028   0.00384   0.00356   1.94473
    A5        1.90113  -0.00009   0.00060  -0.00182  -0.00121   1.89993
    A6        1.90113  -0.00009   0.00060  -0.00182  -0.00121   1.89993
    A7        1.89593  -0.00032   0.00144  -0.00311  -0.00168   1.89425
    A8        1.88259  -0.00070  -0.00212  -0.00109  -0.00320   1.87939
    A9        1.94117   0.00059  -0.00028   0.00384   0.00356   1.94473
   A10        1.94117   0.00059  -0.00028   0.00384   0.00356   1.94473
   A11        1.90113  -0.00009   0.00060  -0.00182  -0.00121   1.89993
   A12        1.90113  -0.00009   0.00060  -0.00182  -0.00121   1.89993
   A13        1.89593  -0.00032   0.00144  -0.00311  -0.00168   1.89425
    D1        3.14159   0.00000  -0.00000   0.00000   0.00000   3.14159
    D2       -1.05787  -0.00020  -0.00073  -0.00066  -0.00140  -1.05927
    D3        1.05787   0.00020   0.00073   0.00066   0.00140   1.05927
    D4        3.14159   0.00000  -0.00000   0.00000   0.00000   3.14159
    D5       -1.05787  -0.00020  -0.00073  -0.00066  -0.00140  -1.05927
    D6        1.05787   0.00020   0.00073   0.00066   0.00140   1.05927
         Item               Value     Threshold  Converged?
 Maximum Force            0.002215     0.000015     NO 
 RMS     Force            0.000633     0.000010     NO 
 Maximum Displacement     0.007789     0.000060     NO 
 RMS     Displacement     0.003523     0.000040     NO 
 Predicted change in Energy=-1.979850D-05
 Lowest energy point so far.  Saving SCF results.
 GradGradGradGradGradGradGradGradGradGradGradGradGradGradGradGradGradGrad

[...]
     Eigenvalues ---    0.46889
 Angle between quadratic step and forces=  27.56 degrees.
 Linear search not attempted -- first point.
 Iteration  1 RMS(Cart)=  0.00002647 RMS(Int)=  0.00000000
 Iteration  2 RMS(Cart)=  0.00000000 RMS(Int)=  0.00000000
 ITry= 1 IFail=0 DXMaxC= 5.62D-05 DCOld= 1.00D+10 DXMaxT= 3.00D-01 DXLimC= 3.00D+00 Rises=F
 ClnCor:  largest displacement from symmetrization is 7.67D-12 for atom     9.
 Variable       Old X    -DE/DX   Delta X   Delta X   Delta X     New X
                                 (Linear)    (Quad)   (Total)
    R1        2.62862   0.00001   0.00000   0.00001   0.00001   2.62863
    R2        2.62862   0.00001   0.00000   0.00001   0.00001   2.62863
    R3        2.04441  -0.00000   0.00000  -0.00000  -0.00000   2.04441
    R4        2.05965   0.00000   0.00000   0.00000   0.00000   2.05965
    R5        2.05965   0.00000   0.00000   0.00000   0.00000   2.05965
    R6        2.04441  -0.00000   0.00000  -0.00000  -0.00000   2.04441
    R7        2.05965   0.00000   0.00000   0.00000   0.00000   2.05965
    R8        2.05965   0.00000   0.00000   0.00000   0.00000   2.05965
    A1        1.99170   0.00000   0.00000   0.00001   0.00001   1.99171
    A2        1.88035   0.00000   0.00000  -0.00000  -0.00000   1.88035
    A3        1.94380   0.00000   0.00000   0.00002   0.00002   1.94382
    A4        1.94380   0.00000   0.00000   0.00002   0.00002   1.94382
    A5        1.90022  -0.00000   0.00000  -0.00001  -0.00001   1.90020
    A6        1.90022  -0.00000   0.00000  -0.00001  -0.00001   1.90020
    A7        1.89460  -0.00000   0.00000  -0.00001  -0.00001   1.89459
    A8        1.88035   0.00000   0.00000  -0.00000  -0.00000   1.88035
    A9        1.94380   0.00000   0.00000   0.00002   0.00002   1.94382
   A10        1.94380   0.00000   0.00000   0.00002   0.00002   1.94382
   A11        1.90022  -0.00000   0.00000  -0.00001  -0.00001   1.90020
   A12        1.90022  -0.00000   0.00000  -0.00001  -0.00001   1.90020
   A13        1.89460  -0.00000   0.00000  -0.00001  -0.00001   1.89459
    D1        3.14159   0.00000   0.00000   0.00000   0.00000   3.14159
    D2       -1.05885  -0.00000   0.00000  -0.00001  -0.00001  -1.05885
    D3        1.05885   0.00000   0.00000   0.00001   0.00001   1.05885
    D4        3.14159   0.00000   0.00000   0.00000   0.00000   3.14159
    D5       -1.05885  -0.00000   0.00000  -0.00001  -0.00001  -1.05885
    D6        1.05885   0.00000   0.00000   0.00001   0.00001   1.05885
         Item               Value     Threshold  Converged?
 Maximum Force            0.000008     0.000015     YES
 RMS     Force            0.000003     0.000010     YES
 Maximum Displacement     0.000056     0.000060     YES
 RMS     Displacement     0.000026     0.000040     YES
 Predicted change in Energy=-3.803194D-10
 Optimization completed.
    -- Stationary point found.
                           ----------------------------
                           !   Optimized Parameters   !
                           ! (Angstroms and Degrees)  !
 --------------------------                            --------------------------
 ! Name  Definition              Value          Derivative Info.                !
 --------------------------------------------------------------------------------
 ! R1    R(1,2)                  1.391          -DE/DX =    0.0                 !
 ! R2    R(1,6)                  1.391          -DE/DX =    0.0                 !
 ! R3    R(2,3)                  1.0819         -DE/DX =    0.0                 !
 ! R4    R(2,4)                  1.0899         -DE/DX =    0.0                 !
 ! R5    R(2,5)                  1.0899         -DE/DX =    0.0                 !
 ! R6    R(6,7)                  1.0819         -DE/DX =    0.0                 !
 ! R7    R(6,8)                  1.0899         -DE/DX =    0.0                 !
 ! R8    R(6,9)                  1.0899         -DE/DX =    0.0                 !
 ! A1    A(2,1,6)              114.1159         -DE/DX =    0.0                 !
 ! A2    A(1,2,3)              107.7363         -DE/DX =    0.0                 !
 ! A3    A(1,2,4)              111.3717         -DE/DX =    0.0                 !
 ! A4    A(1,2,5)              111.3717         -DE/DX =    0.0                 !
 ! A5    A(3,2,4)              108.8743         -DE/DX =    0.0                 !
 ! A6    A(3,2,5)              108.8743         -DE/DX =    0.0                 !
 ! A7    A(4,2,5)              108.5528         -DE/DX =    0.0                 !
 ! A8    A(1,6,7)              107.7363         -DE/DX =    0.0                 !
 ! A9    A(1,6,8)              111.3717         -DE/DX =    0.0                 !
 ! A10   A(1,6,9)              111.3717         -DE/DX =    0.0                 !
 ! A11   A(7,6,8)              108.8743         -DE/DX =    0.0                 !
 ! A12   A(7,6,9)              108.8743         -DE/DX =    0.0                 !
 ! A13   A(8,6,9)              108.5528         -DE/DX =    0.0                 !
 ! D1    D(6,1,2,3)            180.0            -DE/DX =    0.0                 !
 ! D2    D(6,1,2,4)            -60.6675         -DE/DX =    0.0                 !
 ! D3    D(6,1,2,5)             60.6675         -DE/DX =    0.0                 !
 ! D4    D(2,1,6,7)            180.0            -DE/DX =    0.0                 !
 ! D5    D(2,1,6,8)            -60.6675         -DE/DX =    0.0                 !
 ! D6    D(2,1,6,9)             60.6675         -DE/DX =    0.0                 !
 --------------------------------------------------------------------------------
 GradGradGradGradGradGradGradGradGradGradGradGradGradGradGradGradGradGrad

 Leave Link  103 at Mon Oct 10 14:44:21 2022, MaxMem=   104857600 cpu:               0.3 elap:               0.0
 (Enter /usr/local/g16/l9999.exe)

 ----------------------------------------------------------------------

 Electric dipole moment (input orientation):
 (Debye = 10**-18 statcoulomb cm , SI units = C m)
                  (au)            (Debye)         (10**-30 SI)
   Tot        0.602098D+00      0.153038D+01      0.510480D+01
   x         -0.491699D+00     -0.124977D+01     -0.416879D+01
   y          0.000000D+00      0.000000D+00      0.000000D+00
   z          0.347498D+00      0.883252D+00      0.294621D+01

 Dipole polarizability, Alpha (input orientation).
 (esu units = cm**3 , SI units = C**2 m**2 J**-1)
 Alpha(0;0):
               (au)            (10**-24 esu)      (10**-40 SI)
   iso        0.283417D+02      0.419981D+01      0.467292D+01
   aniso      0.469699D+01      0.696022D+00      0.774429D+00
   xx         0.282829D+02      0.419109D+01      0.466321D+01
   yx         0.000000D+00      0.000000D+00      0.000000D+00
   yy         0.268635D+02      0.398076D+01      0.442919D+01
   zx         0.225349D+01      0.333933D+00      0.371550D+00
   zy         0.000000D+00      0.000000D+00      0.000000D+00
   zz         0.298789D+02      0.442759D+01      0.492636D+01

 First dipole hyperpolarizability, Beta (input orientation).
 ||, _|_  parallel and perpendicular components, (z) with respect to z axis,
 vector components x,y,z.  Values do not include the 1/n! factor of 1/2.
 (esu units = statvolt**-1 cm**4 , SI units = C**3 m**3 J**-2)
 Beta(0;0,0):
               (au)            (10**-30 esu)      (10**-50 SI)
   || (z)     0.309903D+02      0.267732D+00      0.993660D-01
   _|_(z)     0.103301D+02      0.892439D-01      0.331220D-01
   x         -0.219251D+03     -0.189416D+01     -0.702998D+00
   y         -0.175754D-03     -0.151838D-05     -0.563532D-06
   z          0.154951D+03      0.133866D+01      0.496830D+00
   ||         0.536958D+02      0.463890D+00      0.172168D+00
   xxx       -0.172877D+02     -0.149352D+00     -0.554306D-01
   xxy        0.560058D-04      0.483847D-06      0.179575D-06
   yxy       -0.462418D+02     -0.399493D+00     -0.148268D+00
   yyy       -0.111204D-03     -0.960716D-06     -0.356560D-06
   xxz        0.148256D+02      0.128082D+00      0.475363D-01
   yxz       -0.158255D-04     -0.136720D-06     -0.507422D-07
   yyz        0.326805D+02      0.282334D+00      0.104785D+00
   zxz       -0.955421D+01     -0.825410D-01     -0.306343D-01
   zyz        0.000000D+00      0.000000D+00      0.000000D+00
   zzz        0.414437D+01      0.358042D-01      0.132884D-01

 ----------------------------------------------------------------------

 Dipole orientation:
     8         -0.00000000         -0.00000033          0.13109605
     6          2.20599325          0.00000138          1.56051544
     1          3.78755191          0.00000248          0.26502601
     1          2.32494530          1.67211744          2.75719959
     1          2.32494778         -1.67211436          2.75719978
     6         -2.20599325         -0.00000204          1.56051544
     1         -3.78755191         -0.00000314          0.26502601
     1         -2.32494530         -1.67211810          2.75719959
     1         -2.32494778          1.67211370          2.75719978

 Electric dipole moment (dipole orientation):
 (Debye = 10**-18 statcoulomb cm , SI units = C m)
                  (au)            (Debye)         (10**-30 SI)
   Tot        0.602098D+00      0.153038D+01      0.510480D+01
   x          0.000000D+00      0.000000D+00      0.000000D+00
   y          0.000000D+00      0.000000D+00      0.000000D+00
   z          0.602098D+00      0.153038D+01      0.510480D+01

 Dipole polarizability, Alpha (dipole orientation).
 (esu units = cm**3 , SI units = C**2 m**2 J**-1)
 Alpha(0;0):
               (au)            (10**-24 esu)      (10**-40 SI)
   iso        0.283417D+02      0.419981D+01      0.467292D+01
   aniso      0.469699D+01      0.696022D+00      0.774429D+00
   xx         0.314715D+02      0.466359D+01      0.518894D+01
   yx         0.000000D+00      0.000000D+00      0.000000D+00
   yy         0.268635D+02      0.398076D+01      0.442919D+01
   zx         0.000000D+00      0.000000D+00      0.000000D+00
   zy         0.000000D+00      0.000000D+00      0.000000D+00
   zz         0.266903D+02      0.395509D+01      0.440063D+01

 First dipole hyperpolarizability, Beta (dipole orientation).
 ||, _|_  parallel and perpendicular components, (z) with respect to z axis,
 vector components x,y,z.  Values do not include the 1/n! factor of 1/2.
 (esu units = statvolt**-1 cm**4 , SI units = C**3 m**3 J**-2)
 Beta(0;0,0):
               (au)            (10**-30 esu)      (10**-50 SI)
   || (z)     0.536958D+02      0.463890D+00      0.172168D+00
   _|_(z)     0.178986D+02      0.154630D+00      0.573894D-01
   x          0.000000D+00      0.000000D+00      0.000000D+00
   y          0.000000D+00      0.000000D+00      0.000000D+00
   z          0.268479D+03      0.231945D+01      0.860841D+00
   ||         0.536958D+02      0.463890D+00      0.172168D+00
   xxx        0.000000D+00      0.000000D+00      0.000000D+00
   xxy        0.000000D+00      0.000000D+00      0.000000D+00
   yxy        0.000000D+00      0.000000D+00      0.000000D+00
   yyy        0.000000D+00      0.000000D+00      0.000000D+00
   xxz       -0.225929D+01     -0.195185D-01     -0.724410D-02
   yxz       -0.426698D-04     -0.368634D-06     -0.136815D-06
   yyz        0.566243D+02      0.489190D+00      0.181558D+00
   zxz        0.000000D+00      0.000000D+00      0.000000D+00
   zyz        0.000000D+00      0.000000D+00      0.000000D+00
   zzz        0.351280D+02      0.303478D+00      0.112633D+00

 ----------------------------------------------------------------------
 1\1\GINC-AE2-C724\Freq\RHF\6-311++G(d,p)\C2H6O1\DDI\10-Oct-2022\0\\#P 
 Geom=AllCheck Guess=TCheck SCRF=Check GenChk RHF/6-311++G(d,p) Freq\\T
 itle Card Required\\0,1\O,-0.0566529096,-0.0000002199,0.040038318\C,-0
 .0006367922,-0.0000002039,1.4299160617\H,1.0422336278,0.0000005389,1.7
 177255093\H,-0.4814524788,0.8848450728,1.8468033419\H,-0.4814512075,-0
 .8848461845,1.8468033116\C,-1.3481107736,-0.0000012263,-0.4767155242\H
 ,-1.2712945999,-0.0000010715,-1.5558412197\H,-1.9015846496,-0.88484733
 21,-0.1626392113\H,-1.9015860888,0.8848439253,-0.1626390623\\Version=E
 S64L-G16RevA.03\State=1-A\HF=-154.1123174\RMSD=2.136e-09\RMSF=2.076e-0
 6\ZeroPoint=0.0848331\Thermal=0.0890771\Dipole=-0.4916985,-0.0000004,0
 .3474982\DipoleDeriv=-0.9366775,-0.0000003,-0.3098937,-0.0000003,-0.54
 73142,-0.0000002,-0.3098937,-0.0000002,-1.1561557,0.3590304,-0.0000001
 ,0.0148433,-0.0000001,0.5013468,0.,0.1219262,0.,0.984528,-0.1579271,-0
 .0000002,-0.0992027,-0.0000002,0.0729449,0.,-0.0452307,0.,-0.0045003,-
 0.0055391,0.1114638,0.0749642,0.0916945,-0.1503172,-0.109148,-0.014741
 2,-0.030947,-0.0618182,-0.0055388,-0.1114636,0.074964,-0.0916943,-0.15
 03175,0.1091481,-0.0147413,0.0309469,-0.0618182,0.8717948,0.0000003,0.
 3035056,0.0000003,0.5013468,0.0000002,0.1964227,0.0000002,0.4717637,0.
 0238512,0.,0.0191404,0.,0.0729449,0.,-0.0348316,0.,-0.1862786,-0.07449
 68,-0.0663792,-0.0391606,-0.1334956,-0.1503175,0.0500006,0.0505447,0.0
 9474,0.0071398,-0.0744971,0.0663793,-0.0391605,0.1334957,-0.1503171,-0
 .0500007,0.0505448,-0.09474,0.0071397\Polar=28.2828597,0.0000011,26.86
 35108,2.253489,0.0000018,29.8788643\PolarDeriv=5.5823676,0.0000051,-1.
 5367255,1.3182551,0.0000012,1.3162505,0.0000035,0.4336515,-0.0000007,0
 .0000015,-0.3064739,0.0000012,0.9562765,0.,1.0860501,0.8040635,0.00000
 07,-5.8317377,-5.1811355,-0.0000093,4.27938,-2.9869017,0.0000009,0.301
 6265,-0.000009,3.5599031,0.0000083,0.0000011,-4.0832565,0.0000003,-2.1
 817493,0.0000016,-4.4471526,1.6227654,0.0000011,3.3238076,8.9390407,0.
 0000051,0.7079421,2.7058647,0.0000012,1.9287278,0.0000048,1.0816313,0.
 000002,0.0000012,0.9874337,0.0000013,1.9663241,0.0000012,0.3307807,2.2
 380141,0.0000016,1.1243395,-1.0586744,1.62118,-2.1432517,1.1906468,-0.
 5395604,-1.0829544,1.3944413,-1.6680239,5.5590136,-0.3942473,2.7015429
 ,2.168045,0.3347213,-0.3561728,1.738889,-1.124442,2.5463651,2.4143813,
 -1.0586683,-1.6211761,-2.1432487,1.1906459,0.539558,-1.0829513,-1.3944
 379,-1.6680202,-5.5590215,0.394245,2.7015442,-2.1680466,0.3347205,0.35
 61707,1.7388902,-1.1244387,-2.5463665,2.4143809,-1.0680002,-0.0000094,
 5.620557,-3.0207684,-0.0000002,-1.6373648,-0.000009,5.0373671,0.000013
 4,-0.0000007,-1.9926933,-0.0000023,-2.0441734,0.0000008,-2.549431,-0.4
 373896,-0.0000012,6.2625741,0.515502,0.0000011,-0.0754917,-1.4241465,0
 .,0.198846,0.0000015,-0.56974,-0.0000007,0.,-1.3492027,0.0000009,-0.88
 57367,0.,-0.7777525,-0.3950338,0.0000003,-10.3903575,-3.3352099,-2.725
 1242,-2.3545809,0.5132022,-0.034757,0.0289109,-2.32995,-3.1033839,-5.5
 590248,0.0629635,0.6705528,-1.232533,0.759808,0.1486301,1.4398632,-0.7
 917684,-1.4424186,0.3413056,-3.3352228,2.7251274,-2.3545814,0.5132033,
 0.0347563,0.0289089,2.3299546,-3.1033846,5.5590102,-0.062964,0.6705532
 ,1.2325332,0.7598092,-0.1486315,1.4398633,-0.7917711,1.4424176,0.34130
 65\HyperPolar=-17.2877068,0.000056,-46.2417719,-0.0001112,14.8256194,-
 0.0000158,32.6804533,-9.5542145,-0.0000034,4.144375\Quadrupole=-0.3354
 389,-0.4024829,0.7379218,0.,1.5155385,0.0000011\PG=C02 [C2(O1),X(C2H6)
 ]\NImag=0\\0.46642393,0.00000027,0.11309863,0.10301337,0.00000007,0.53
 938183,-0.11151279,-0.00000003,0.02684628,0.68806941,-0.00000003,-0.07
 453328,0.00000002,0.00000005,0.61979176,-0.01987151,-0.00000001,-0.300
 66981,0.01342330,0.00000001,0.56166896,0.00252225,0.,-0.00335346,-0.33
 287830,-0.00000019,-0.06869527,0.35378122,0.,0.00097163,0.,-0.00000019
 ,-0.06109182,-0.00000005,0.00000021,0.05470957,-0.04893355,-0.00000004
 ,-0.02321107,-0.05268407,-0.00000004,-0.06973534,0.07668507,0.00000005
 ,0.08984571,0.00409390,-0.00210195,0.00187996,-0.11703961,0.09677996,0
 .03899492,-0.01313169,0.03033345,0.01180651,0.11414876,-0.00206747,0.0
 0850617,-0.00650641,0.09654372,-0.24156270,-0.07256587,-0.00013237,0.0
 0200762,0.00149497,-0.10843262,0.25513401,0.01615807,-0.03496053,-0.03
 910963,0.03435226,-0.06716664,-0.08616134,-0.00228634,0.00748029,0.005
 11755,-0.04650155,0.08601531,0.10932452,0.00409389,0.00210195,0.001879
 94,-0.11703933,-0.09677978,0.03899481,-0.01313165,-0.03033347,0.011806
 52,0.00936366,0.01441003,-0.00600625,0.11414845,0.00206746,0.00850617,
 0.00650642,-0.09654354,-0.24156298,0.07256592,0.00013235,0.00200758,-0
 .00149495,-0.01440998,-0.02463181,0.00903867,0.10843242,0.25513433,0.0
 1615803,0.03496056,-0.03910963,0.03435216,0.06716668,-0.08616134,-0.00
 228633,-0.00748029,0.00511755,-0.00600624,-0.00903868,0.00739953,-0.04
 650142,-0.08601537,0.10932452,-0.28178729,-0.00000016,-0.08016887,-0.0
 0502076,0.,-0.01695744,0.00269824,0.,0.00421043,0.00151506,0.00122789,
 0.00677533,0.00151506,-0.00122789,0.00677531,0.56730582,-0.00000016,-0
 .07453329,-0.00000006,0.,-0.00256658,-0.00000001,0.,0.00025556,0.,-0.0
 0255204,0.00063501,-0.00222667,0.00255204,0.00063502,0.00222669,-0.000
 00004,0.61979176,-0.03345108,-0.00000003,-0.13039530,-0.05019295,-0.00
 000004,-0.02879996,-0.00024161,0.,-0.00626079,-0.00110274,0.00126485,0
 .00290632,-0.00110274,-0.00126485,0.00290631,-0.02934133,-0.00000003,0
 .68243254,-0.00389104,0.,-0.05120462,-0.00651134,0.,0.00094914,-0.0001
 6132,0.,-0.00218116,0.00012715,-0.00048778,-0.00036318,0.00012715,0.00
 048778,-0.00036318,-0.06086333,0.,0.04364148,0.07099578,0.,0.00097163,
 -0.00000004,0.,0.00025556,0.,0.,0.00053356,0.,-0.00003451,0.00030314,0
 .00045917,0.00003451,0.00030315,-0.00045917,0.,-0.06109182,0.00000006,
 0.00000002,0.05470957,-0.00562453,0.,-0.01679778,-0.00350289,0.,0.0029
 4879,-0.00019237,0.,-0.00100183,0.00017684,-0.00004110,0.00008758,0.00
 017684,0.00004110,0.00008758,0.02763028,0.00000005,-0.34175031,-0.0234
 5451,-0.00000005,0.37263116,-0.03997140,-0.03225366,0.00055370,0.00096
 635,-0.00124707,0.00658102,0.00015062,0.00044435,-0.00035487,0.0000168
 7,0.00004077,-0.00090529,0.00090589,0.00110218,-0.00122304,-0.11268124
 ,-0.09561976,0.03589542,0.00008847,-0.00307429,0.00239516,0.13912620,-
 0.00544312,0.00850615,-0.00412077,0.00078242,0.00063502,0.00157968,0.0
 0012408,0.00030315,-0.00047352,0.00009234,-0.00048488,0.00007595,-0.00
 032535,0.00009343,-0.00128446,-0.10063044,-0.24156301,0.06678305,0.001
 45339,0.00200760,0.00037427,0.11727705,0.25513437,-0.01372439,-0.01365
 147,0.00495569,-0.00129704,-0.00314894,0.00345502,0.00018515,0.0001207
 5,0.00006411,0.00005073,0.00011239,-0.00028574,0.00070156,0.00073545,0
 .00072123,0.04053807,0.06880805,-0.09051939,0.01648799,0.03109056,-0.0
 0810259,-0.03765632,-0.07350049,0.08434673,-0.03997146,0.03225358,0.00
 055371,0.00096635,0.00124707,0.00658101,0.00015062,-0.00044435,-0.0003
 5487,0.00090590,-0.00110218,-0.00122304,0.00001687,-0.00004077,-0.0009
 0529,-0.11268157,0.09561997,0.03589554,0.00008847,0.00307428,0.0023951
 6,0.01139824,-0.01333036,-0.00528576,0.13912658,0.00544304,0.00850621,
 0.00412076,-0.00078242,0.00063502,-0.00157967,-0.00012408,0.00030314,0
 .00047352,0.00032535,0.00009343,0.00128446,-0.00009233,-0.00048488,-0.
 00007595,0.10063065,-0.24156267,-0.06678302,-0.00145339,0.00200761,-0.
 00037426,0.01333042,-0.02463181,-0.01056631,-0.11727724,0.25513397,-0.
 01372441,0.01365145,0.00495570,-0.00129705,0.00314894,0.00345502,0.000
 18515,-0.00012074,0.00006411,0.00070157,-0.00073545,0.00072123,0.00005
 073,-0.00011239,-0.00028574,0.04053820,-0.06880801,-0.09051942,0.01648
 804,-0.03109054,-0.00810259,-0.00528577,0.01056629,0.00536495,-0.03765
 646,0.07350046,0.08434675\\-0.00000669,0.,0.00000473,0.00000053,0.,-0.
 00000023,0.00000118,0.,-0.00000123,-0.00000101,0.00000067,-0.00000303,
 -0.00000101,-0.00000067,-0.00000303,0.00000039,0.,-0.00000042,0.000001
 56,0.,-0.00000070,0.00000252,-0.00000067,0.00000196,0.00000252,0.00000
 067,0.00000196\\\@


 IF IT'S NOT TRUE, IT'S WELL INVENTED -- DANTE
 Job cpu time:       0 days  0 hours  0 minutes 26.7 seconds.
 Elapsed time:       0 days  0 hours  0 minutes  2.5 seconds.
 File lengths (MBytes):  RWF=     11 Int=      0 D2E=      0 Chk=      2 Scr=      1
 Normal termination of Gaussian 16 at Mon Oct 10 14:44:21 2022.
