
 Working directory              : /scratch/koe/tmpdir_719178/molpro.LvUOgncUMf/
 Global scratch directory       : /scratch/koe/tmpdir_719178/molpro.LvUOgncUMf/
 Wavefunction directory         : /home/koe/delocalized_ic/fluoroethylene/
 Main file repository           : /home/koe/delocalized_ic/fluoroethylene/

 id        : liedlgroup

 Nodes     nprocs
 rune02      10
 GA implementation: MPI file
 GA implementation (serial work in mppx): MPI file

 Using customized tuning parameters: mindgm=1; mindgv=20; mindgc=4; mindgr=1; noblas=0; minvec=7
 default implementation of scratch files=sf  


 Variables initialized (1015), CPU time= 0.01 sec
 ***,c2h3f (fluoroethylene) - electronic structure and normal modes for comparison wi
 memory,256,M
 
 orient,mass
 geometry={
 C1
 C2,C1,rcc
 F,C1,rcf,C2,ccf
 H1,C1,rch,C2,cch,F,180.0
 H2,C2,rch,C1,cch,F,180.0
 h3,C2,rch,C1,cch,H2,180.0
 }
 rcc= 1.4000 ANG
 rcf= 1.4000 ANG
 ccf= 118.00 DEGREE
 rch= 1.0000 ANG
 cch= 120.00 DEGREE
 
 mass,iso
 basis=vtz
 
 {hf
 start,atden}
 
 {optg, GRADIENT=3.0D-8, ENERGY=1.0D-10, STEP=3.0D-8}
 {frequencies,symm=auto,print=0, analytical}
 
 put,molden,c2h3f.molden
 
 Commands initialized (818), CPU time= 0.01 sec, 672 directives.
 Default parameters read. Elapsed time= 0.63 sec

 Checking input...
 Passed
1


                                         ***  PROGRAM SYSTEM MOLPRO  ***
                                       Copyright, TTI GmbH Stuttgart, 2015
                                    Version 2022.1 linked Jan 25 2022 12:44:58


 **********************************************************************************************************************************
 LABEL *   c2h3f (fluoroethylene) - electronic structure and normal modes for com        
  64 bit mpp version                                                                     DATE: 13-Jan-23          TIME: 12:23:18  
 **********************************************************************************************************************************

 SHA1:             f3d4322b9bdbeed63a35be676bd653804e8a9433
 **********************************************************************************************************************************

 Memory per process:       256 MW
 Total memory per node:   2560 MW

 GA preallocation disabled
 GA check disabled

 Variable memory set to 256.0 MW

 ZCENTRE=MASS

 SETTING RCC            =         1.40000000  ANG                             
 SETTING RCF            =         1.40000000  ANG                             
 SETTING CCF            =       118.00000000  DEGREE                          
 SETTING RCH            =         1.00000000  ANG                             
 SETTING CCH            =       120.00000000  DEGREE                          


 Using masses of most abundant isotopes

 **********************************************************************************************************************************
 SETTING BASIS          =    VTZ


 Recomputing integrals since basis changed


 Using spherical harmonics

 Library entry C      S cc-pVTZ              selected for orbital group  1
 Library entry C      P cc-pVTZ              selected for orbital group  1
 Library entry C      D cc-pVTZ              selected for orbital group  1
 Library entry C      F cc-pVTZ              selected for orbital group  1
 Library entry F      S cc-pVTZ              selected for orbital group  2
 Library entry F      P cc-pVTZ              selected for orbital group  2
 Library entry F      D cc-pVTZ              selected for orbital group  2
 Library entry F      F cc-pVTZ              selected for orbital group  2
 Library entry H      S cc-pVTZ              selected for orbital group  3
 Library entry H      P cc-pVTZ              selected for orbital group  3
 Library entry H      D cc-pVTZ              selected for orbital group  3


 PROGRAM * SEWARD (Integral evaluation for generally contracted gaussian basis sets)     Author: Roland Lindh, 1990

 Geometry written to block  1 of record 700

 Orientation using atomic masses  
 Molecule type: Asymmetric top
 Symmetry elements: X
 Rotational constants:       8.6871666     10.1390764     60.6648167 GHz

 Point group  Cs  



 ATOMIC COORDINATES

 NR  ATOM    CHARGE       X              Y              Z

   1  C1      6.00    0.000000000   -0.952384347    0.231086063
   2  C2      6.00    0.000000000    0.461512237    2.467195074
   3  F       9.00    0.000000000    0.358198483   -2.067100114
   4  H1      1.00    0.000000000   -2.840581133    0.307097388
   5  H2      1.00    0.000000000   -0.416758418    4.140427121
   6  H3      1.00    0.000000000    2.349709024    2.391183750

 Bond lengths in Bohr (Angstrom)

 1-2  2.645616574  1-3  2.645616574  1-4  1.889726125  2-5  1.889726125  2-6  1.889726125
     ( 1.400000000)     ( 1.400000000)     ( 1.000000000)     ( 1.000000000)     ( 1.000000000)

 Bond angles

  1-2-5  120.00000000   1-2-6  120.00000000   2-1-3  118.00000000   2-1-4  120.00000000

  3-1-4  122.00000000   5-2-6  120.00000000

 NUCLEAR CHARGE:                   24
 NUMBER OF PRIMITIVE AOS:         192
 NUMBER OF SYMMETRY AOS:          174
 NUMBER OF CONTRACTIONS:          132   (   90A'  +   42A"  )
 NUMBER OF INNER CORE ORBITALS:     0   (    0A'  +    0A"  )
 NUMBER OF OUTER CORE ORBITALS:     3   (    3A'  +    0A"  )
 NUMBER OF VALENCE ORBITALS:       15   (   12A'  +    3A"  )


 NUCLEAR REPULSION ENERGY   66.25754562


 Eigenvalues of metric

         1 0.868E-03 0.983E-03 0.124E-02 0.143E-02 0.193E-02 0.411E-02 0.486E-02 0.499E-02
         2 0.229E-01 0.326E-01 0.448E-01 0.514E-01 0.625E-01 0.840E-01 0.899E-01 0.121E+00


 Contracted 2-electron integrals neglected if value below      1.0D-11
 AO integral compression algorithm  1   Integral accuracy      1.0D-11

     89.653 MB (compressed) written to integral file ( 49.7%)

     Node minimum: 8.389 MB, node maximum: 9.699 MB


 NUMBER OF SORTED TWO-ELECTRON INTEGRALS:    1985050.     BUFFER LENGTH:  32768
 NUMBER OF SEGMENTS:   1  SEGMENT LENGTH:    1985050      RECORD LENGTH: 524288

 Memory used in sort:       2.54 MW

 SORT1 READ    22576323. AND WROTE     1885464. INTEGRALS IN      6 RECORDS. CPU TIME:     0.27 SEC, REAL TIME:     0.28 SEC
 SORT2 READ    18977187. AND WROTE    19888071. INTEGRALS IN    330 RECORDS. CPU TIME:     0.05 SEC, REAL TIME:     0.08 SEC

 Node minimum:     1983054.  Node maximum:     1998838. integrals

 OPERATOR DM      FOR CENTER  0  COORDINATES:    0.000000    0.000000    0.000000


 **********************************************************************************************************************************
 DATASETS  * FILE   NREC   LENGTH (MB)   RECORD NAMES
              1      18       28.97       500      610      700      900      950      970     1000      129      960     1100   
                                          VAR    BASINP    GEOM    SYMINP    ZMAT    AOBASIS   BASIS     P2S    ABASIS      S 
                                         1400     1410     1200     1210     1080     1600     1650     1700   
                                           T        V       H0       H01     AOSYM     SMH    MOLCAS    OPER   

 PROGRAMS   *        TOTAL       INT
 CPU TIMES  *         0.92      0.71
 REAL TIME  *         2.65 SEC
 DISK USED  *        29.31 MB (local),      610.94 MB (total)
 GA USED    *         0.00 MB       (max)       0.00 MB       (current)
 **********************************************************************************************************************************


 Program * Restricted Hartree-Fock

 Orbital guess generated from atomic densities. Full valence occupancy:   15   3

 Initial occupancy:  10   2

 NELEC=   24   SYM=1   MS2= 0   THRE=1.0D-08   THRD=1.0D-06   THRG=1.0D-06  HFMA2=F  DIIS_START=2   DIIS_MAX=10   DIIS_INCORE=F

 Level shifts:    0.00 (CLOSED)    0.00 (OPEN)    0.30 (GAP_MIN)

 ITER           ETOT              DE          GRAD        DDIFF     DIIS  NEXP   TIME(IT)  TIME(TOT)  DIAG
   1     -176.87219414    -176.87219414     0.00D+00     0.97D-01     0     0       0.01      0.02    start
   2     -176.90913716      -0.03694302     0.75D-02     0.11D-01     1     0       0.02      0.04    diag
   3     -176.92250716      -0.01337000     0.45D-02     0.44D-02     2     0       0.01      0.05    diag
   4     -176.92338556      -0.00087840     0.73D-03     0.11D-02     3     0       0.01      0.06    diag
   5     -176.92344469      -0.00005913     0.18D-03     0.27D-03     4     0       0.02      0.08    diag
   6     -176.92345313      -0.00000844     0.74D-04     0.11D-03     5     0       0.01      0.09    diag
   7     -176.92345543      -0.00000230     0.30D-04     0.62D-04     6     0       0.01      0.10    diag
   8     -176.92345571      -0.00000028     0.11D-04     0.28D-04     7     0       0.01      0.11    fixocc
   9     -176.92345573      -0.00000001     0.23D-05     0.52D-05     8     0       0.01      0.12    diag
  10     -176.92345573      -0.00000000     0.82D-06     0.19D-05     9     0       0.01      0.13    diag/orth
  11     -176.92345573      -0.00000000     0.22D-06     0.51D-06     9     0       0.01      0.14    diag
  12     -176.92345573      -0.00000000     0.41D-07     0.59D-07     0     0       0.01      0.15    diag

 Final occupancy:  10   2

 !RHF STATE 1.1 Energy               -176.923455727944
  RHF One-electron energy            -374.357997946743
  RHF Two-electron energy             131.176996600815
  RHF Kinetic energy                  176.801581623044
  RHF Nuclear energy                   66.257545617984
  RHF Virial quotient                  -1.000689327006

 !RHF STATE 1.1 Dipole moment           0.00000000    -0.38475321     0.63969309
 Dipole moment /Debye                   0.00000000    -0.97794512     1.62593766

 Orbital energies:

           1.1          2.1          3.1          4.1          5.1          6.1          7.1          8.1          9.1         10.1
    -26.302114   -11.334275   -11.232833    -1.598563    -1.043493    -0.851994    -0.734227    -0.679417    -0.608037    -0.573406

          11.1         12.1
      0.158479     0.182639

           1.2          2.2          3.2          4.2
     -0.672235    -0.371406     0.134275     0.436242


 HOMO      2.2    -0.371406 =     -10.1065eV
 LUMO      3.2     0.134275 =       3.6538eV
 LUMO-HOMO         0.505681 =      13.7603eV

 Orbitals saved in record  2100.2


 **********************************************************************************************************************************
 DATASETS  * FILE   NREC   LENGTH (MB)   RECORD NAMES
              1      18       28.98       500      610      700      900      950      970     1000      129      960     1100   
                                          VAR    BASINP    GEOM    SYMINP    ZMAT    AOBASIS   BASIS     P2S    ABASIS      S 
                                         1400     1410     1200     1210     1080     1600     1650     1700   
                                           T        V       H0       H01     AOSYM     SMH    MOLCAS    OPER   

              2       4        0.57       700     1000      520     2100   
                                         GEOM     BASIS   MCVARS     RHF  

 PROGRAMS   *        TOTAL    HF-SCF       INT
 CPU TIMES  *         1.09      0.16      0.71
 REAL TIME  *         3.10 SEC
 DISK USED  *        30.29 MB (local),      620.77 MB (total)
 GA USED    *         0.00 MB       (max)       0.00 MB       (current)
 **********************************************************************************************************************************


 PROGRAM * OPT (Geometry optimization)     Authors: F. Eckert and H.-J. Werner


 BFGS update of hessian

 *** Long output written to logfile /home/koe/delocalized_ic/fluoroethylene/c2h3f.log ***


 Geometry optimization using default procedure for command HF-SCF

 Geometry written to block  1 of record 700

 Making model hessian for Z-matrix coordinates

 Entering Rational Function Geometry Optimization

 ITER.   ENERGY(OLD)    ENERGY(NEW)      DE          GRADMAX     GRADNORM    GRADRMS     STEPMAX     STEPLEN     STEPRMS   CPU-time
   1  -176.92345573  -176.95066909    -0.02721337  0.19549653  0.23565377  0.10538757  0.14683768  0.20534745  0.04106949      1.45
   2  -176.95066909  -176.95359582    -0.00292673  0.04117850  0.06825437  0.03052428  0.05941928  0.09075994  0.01815199      2.83
   3  -176.95359582  -176.95393709    -0.00034127  0.01475047  0.02142843  0.00958308  0.02599854  0.03032941  0.00606588      4.16
   4  -176.95393709  -176.95394764    -0.00001055  0.00227864  0.00320537  0.00143349  0.00552017  0.00625515  0.00125103      5.53
   5  -176.95394764  -176.95394810    -0.00000046  0.00070011  0.00088897  0.00039756  0.00068043  0.00106474  0.00021295      6.89
   6  -176.95394810  -176.95394814    -0.00000004  0.00014632  0.00024293  0.00010864  0.00020696  0.00027652  0.00005530      8.22
   7  -176.95394814  -176.95394814    -0.00000000  0.00002750  0.00004121  0.00001843  0.00004876  0.00007053  0.00001411      9.58
   8  -176.95394814  -176.95394814     0.00000000  0.00000488  0.00000745  0.00000333  0.00000877  0.00001227  0.00000245     10.91
   9  -176.95394814  -176.95394814     0.00000000  0.00000057  0.00000083  0.00000037  0.00000041  0.00000069  0.00000014     12.21
  10  -176.95394814  -176.95394814    -0.00000000  0.00000013  0.00000020  0.00000009  0.00000026  0.00000033  0.00000007     13.51
  11  -176.95394814  -176.95394814     0.00000000  0.00000006  0.00000009  0.00000004  0.00000008  0.00000010  0.00000002     14.79
  12  -176.95394814  -176.95394814     0.00000000  0.00000006  0.00000008  0.00000003  0.00000010  0.00000010  0.00000002     16.10
  13  -176.95394814  -176.95394814     0.00000000  0.00000002  0.00000003  0.00000001  0.00000003  0.00000004  0.00000001     17.40
  14  -176.95394814  -176.95394814    -0.00000000  0.00000003  0.00000003  0.00000002  0.00000009  0.00000011  0.00000002     18.70
  15  -176.95394814  -176.95394814    -0.00000000  0.00000004  0.00000006  0.00000003  0.00000007  0.00000008  0.00000002     20.01
  16  -176.95394814  -176.95394814    -0.00000000  0.00000002  0.00000003  0.00000001  0.00000003  0.00000003  0.00000001     21.30

 END OF GEOMETRY OPTIMIZATION.

 Optimized variables
 RCC=                 1.30562067 ANG
 RCF=                 1.31492016 ANG
 CCF=               123.83578360 DEGREE
 RCH=                 1.07221577 ANG
 CCH=               121.70347034 DEGREE

 **********************************************************************************************************************************

 Geometry written to block  1 of record 700

 Recomputing wavefunction for reoriented structure

 Current geometry (xyz format, in Angstrom)

    6
 HF-SCF000/VTZ  ENERGY=-176.95394814
 C          0.0000000000       -0.4288806311        0.1155107241
 C          0.0000000000        0.2062481130        1.2562371640
 F          0.0000000000        0.1692299370       -1.0555054053
 H          0.0000000000       -1.4999964669        0.0669564340
 H          0.0000000000       -0.3166553719        2.1923026522
 H          0.0000000000        1.2773639488        1.3047914541

 **********************************************************************************************************************************


 **********************************************************************************************************************************
 DATASETS  * FILE   NREC   LENGTH (MB)   RECORD NAMES
              1      18       28.98       500      610      700      900      950      970     1000      129      960     1100   
                                          VAR    BASINP    GEOM    SYMINP    ZMAT    AOBASIS   BASIS     P2S    ABASIS      S 
                                         1400     1410     1200     1210     1080     1600     1650     1700   
                                           T        V       H0       H01     AOSYM     SMH    MOLCAS    OPER   

              2       4        0.57       700     1000      520     2100   
                                         GEOM     BASIS   MCVARS     RHF  

 PROGRAMS   *        TOTAL      OPTG    HF-SCF       INT
 CPU TIMES  *        22.42     21.33      0.16      0.71
 REAL TIME  *        26.54 SEC
 DISK USED  *        30.29 MB (local),      621.36 MB (total)
 SF USED    *         0.01 MB
 GA USED    *         0.00 MB       (max)       0.00 MB       (current)
 **********************************************************************************************************************************


 PROGRAM * HESSIAN

 PROGRAM * MCKINLEY (Hessian of the energy)     Author: A. Bernhardsson, R. Lindh

 Orbitals from record         2100.2

 Number of closed-shell orbitals: 12 ( 10  2 )
 Number of occupied orbitals:     12 ( 10  2 )

 Number of electrons= 24     Singlet     Space symmetry=1      Wavefunction type: CLOSED          


 McKinley needed      6.54 seconds of CPU time

 Entering CPHF calculation

 CPHF needed 154 iterations for 18 perturbations.  Total CPU time:    1.61 sec


 HF-SCF hessian saved to record  5300.2

 PROGRAM * FREQUENCIES (Calculation of harmonic vibrational spectra for HF-SCF)


 Permanent Dipole Moment [debye]
   1-  3    0.000000    0.000000    0.000000

 Dipole Moment Norm    0.0000000 [debye]

 Dipole Moment Derivatives [debye/ang]
              1             2             3             4             5             6             7             8
    1     0.0000000     0.0000000     0.0000000     0.0000000     0.0000000     0.0000000     0.0000000     0.0000000
    2     0.0000000     0.0000000     0.0000000     0.0000000     0.0000000     0.0000000     0.0000000     0.0000000
    3     0.0000000     0.0000000     0.0000000     0.0000000     0.0000000     0.0000000     0.0000000     0.0000000
              9            10            11            12            13            14            15            16
    1     0.0000000     0.0000000     0.0000000     0.0000000     0.0000000     0.0000000     0.0000000     0.0000000
    2     0.0000000     0.0000000     0.0000000     0.0000000     0.0000000     0.0000000     0.0000000     0.0000000
    3     0.0000000     0.0000000     0.0000000     0.0000000     0.0000000     0.0000000     0.0000000     0.0000000
             17            18
    1     0.0000000     0.0000000
    2     0.0000000     0.0000000
    3     0.0000000     0.0000000

 Projecting out rotations and translations

 Force Constants (Second Derivatives of the Energy) in [a.u.]
                             C1X1        C1Y1        C1Z1        C2X2        C2Y2    
           C1X1          0.1664191
           C1Y1          0.0000000   0.8276108
           C1Z1          0.0000000   0.1569066   0.9380005
           C2X2         -0.0692764   0.0000000   0.0000000   0.1291698
           C2Y2          0.0000000  -0.2845462  -0.2439325   0.0000000   0.7869267
           C2Z2          0.0000000  -0.2384002  -0.5196744   0.0000000   0.1202342
           FX3          -0.0548345   0.0000000   0.0000000   0.0126316   0.0000000
           FY3           0.0000000  -0.1686326   0.1282411   0.0000000   0.0239330
           FZ3           0.0000000   0.1254488  -0.3409756   0.0000000   0.0361466
           H1X4         -0.0531860   0.0000000   0.0000000   0.0098013   0.0000000
           H1Y4          0.0000000  -0.3715053  -0.0304484   0.0000000  -0.0119447
           H1Z4          0.0000000  -0.0301529  -0.0672240   0.0000000  -0.0331231
           H2X5         -0.0007954   0.0000000   0.0000000  -0.0385017   0.0000000
           H2Y5          0.0000000   0.0123301  -0.0164264   0.0000000  -0.1432475
           H2Z5          0.0000000   0.0213184  -0.0156444   0.0000000   0.1304902
           H3X6          0.0116733   0.0000000   0.0000000  -0.0438245   0.0000000
           H3Y6          0.0000000  -0.0152568   0.0056596   0.0000000  -0.3711214
           H3Z6          0.0000000  -0.0351207   0.0055178   0.0000000  -0.0098153
                             C2Z2        FX3         FY3         FZ3         H1X4    
           C2Z2          0.9475570
           FX3           0.0000000   0.0283832
           FY3          -0.0044033   0.0000000   0.1542707
           FZ3          -0.0650478   0.0000000  -0.1678634   0.4178570
           H1X4          0.0000000   0.0088553   0.0000000   0.0000000   0.0291264
           H1Y4          0.0022863   0.0000000  -0.0126557   0.0117094   0.0000000
           H1Z4          0.0052284   0.0000000   0.0460394  -0.0111687   0.0000000
           H2X5          0.0000000   0.0150465   0.0000000   0.0000000  -0.0065603
           H2Y5          0.1371309   0.0000000   0.0001685  -0.0053375   0.0000000
           H2Z5         -0.2996490   0.0000000  -0.0044083  -0.0041327   0.0000000
           H3X6          0.0000000  -0.0100821   0.0000000   0.0000000   0.0119634
           H3Y6         -0.0168478   0.0000000   0.0029159  -0.0001040   0.0000000
           H3Z6         -0.0684142   0.0000000   0.0023946   0.0034679   0.0000000
                             H1Y4        H1Z4        H2X5        H2Y5        H2Z5    
           H1Y4          0.3951356
           H1Z4          0.0194000   0.0773512
           H2X5          0.0000000   0.0000000   0.0276934
           H2Y5          0.0006926   0.0005902   0.0000000   0.1405297
           H2Z5         -0.0007091   0.0008362   0.0000000  -0.1445015   0.3127706
           H3X6          0.0000000   0.0000000   0.0031175   0.0000000   0.0000000
           H3Y6          0.0002776  -0.0027536   0.0000000  -0.0104735  -0.0021897
           H3Z6         -0.0022383  -0.0050231   0.0000000   0.0285442   0.0058193
                             H3X6        H3Y6        H3Z6    
           H3X6          0.0271525
           H3Y6          0.0000000   0.3936581
           H3Z6          0.0000000   0.0162355   0.0586324


 Atomic Masses
   1-  6   12.000000   12.000000   18.998400    1.007825    1.007825    1.007825

 Mass weighted Second Derivative Matrix
                             C1X1        C1Y1        C1Z1        C2X2        C2Y2    
           C1X1          0.0138683
           C1Y1          0.0000000   0.0689676
           C1Z1          0.0000000   0.0130755   0.0781667
           C2X2         -0.0057730   0.0000000   0.0000000   0.0107641
           C2Y2          0.0000000  -0.0237122  -0.0203277   0.0000000   0.0655772
           C2Z2          0.0000000  -0.0198667  -0.0433062   0.0000000   0.0100195
           FX3          -0.0036317   0.0000000   0.0000000   0.0008366   0.0000000
           FY3           0.0000000  -0.0111684   0.0084933   0.0000000   0.0015851
           FZ3           0.0000000   0.0083084  -0.0225826   0.0000000   0.0023940
           H1X4         -0.0152938   0.0000000   0.0000000   0.0028184   0.0000000
           H1Y4          0.0000000  -0.1068272  -0.0087555   0.0000000  -0.0034347
           H1Z4          0.0000000  -0.0086705  -0.0193304   0.0000000  -0.0095246
           H2X5         -0.0002287   0.0000000   0.0000000  -0.0110712   0.0000000
           H2Y5          0.0000000   0.0035455  -0.0047234   0.0000000  -0.0411911
           H2Z5          0.0000000   0.0061301  -0.0044986   0.0000000   0.0375227
           H3X6          0.0033567   0.0000000   0.0000000  -0.0126018   0.0000000
           H3Y6          0.0000000  -0.0043871   0.0016274   0.0000000  -0.1067168
           H3Z6          0.0000000  -0.0100990   0.0015867   0.0000000  -0.0028224
                             C2Z2        FX3         FY3         FZ3         H1X4    
           C2Z2          0.0789631
           FX3           0.0000000   0.0014940
           FY3          -0.0002916   0.0000000   0.0081202
           FZ3          -0.0043081   0.0000000  -0.0088357   0.0219943
           H1X4          0.0000000   0.0020237   0.0000000   0.0000000   0.0289002
           H1Y4          0.0006574   0.0000000  -0.0028922   0.0026760   0.0000000
           H1Z4          0.0015034   0.0000000   0.0105215  -0.0025524   0.0000000
           H2X5          0.0000000   0.0034386   0.0000000   0.0000000  -0.0065094
           H2Y5          0.0394323   0.0000000   0.0000385  -0.0012198   0.0000000
           H2Z5         -0.0861648   0.0000000  -0.0010074  -0.0009445   0.0000000
           H3X6          0.0000000  -0.0023041   0.0000000   0.0000000   0.0118705
           H3Y6         -0.0048446   0.0000000   0.0006664  -0.0000238   0.0000000
           H3Z6         -0.0196727   0.0000000   0.0005472   0.0007925   0.0000000
                             H1Y4        H1Z4        H2X5        H2Y5        H2Z5    
           H1Y4          0.3920676
           H1Z4          0.0192494   0.0767506
           H2X5          0.0000000   0.0000000   0.0274784
           H2Y5          0.0006872   0.0005856   0.0000000   0.1394386
           H2Z5         -0.0007036   0.0008297   0.0000000  -0.1433795   0.3103422
           H3X6          0.0000000   0.0000000   0.0030933   0.0000000   0.0000000
           H3Y6          0.0002754  -0.0027322   0.0000000  -0.0103922  -0.0021727
           H3Z6         -0.0022209  -0.0049841   0.0000000   0.0283226   0.0057741
                             H3X6        H3Y6        H3Z6    
           H3X6          0.0269416
           H3Y6          0.0000000   0.3906016
           H3Z6          0.0000000   0.0161094   0.0581772


 Mass Weighted 2nd Derivative Matrix Eigenvalues
   1- 10    0.000000    0.000000    0.000000    0.000000    0.000000    0.000000    0.010411    0.024389    0.039884    0.040795
  11- 18    0.044262    0.062143    0.079793    0.090764    0.131955    0.414010    0.425935    0.434273

 Mass Weighted 2nd Derivative Matrix Eigenvectors
              1             2             3             4             5             6             7             8
    1    -0.0502412     0.7516908    -0.0025000    -0.0010892     0.0015961    -0.0000100     0.0000000    -0.5114666
    2     0.3903539     0.0258932     0.0961426     0.0116284     0.2525516     0.1936426     0.4666449     0.0000000
    3    -0.2921431    -0.0206727    -0.0127499    -0.1163964     0.4411212     0.0864273     0.0241167     0.0000000
    4    -0.0981752     0.1961678    -0.1010223     0.8060300     0.1611321    -0.0367213     0.0000000     0.0694317
    5     0.2562505     0.0181553     0.5792423     0.0183371     0.4364211     0.1358708    -0.0546542     0.0000000
    6    -0.2174776    -0.0163644    -0.2817280    -0.1201316     0.3387472     0.1185932     0.3736446     0.0000000
    7    -0.2608711     0.1675567     0.1537771     0.0161189    -0.3219910     0.8460993     0.0000000     0.2435590
    8     0.6643803     0.0425751    -0.5030303     0.0059661     0.0802764     0.3182729    -0.2732077     0.0000000
    9    -0.2791175    -0.0209066    -0.3347591    -0.1508820     0.4337373     0.1468613    -0.4321042     0.0000000
   10     0.0359629     0.5124332    -0.0052157    -0.2141799     0.0211806    -0.1531894     0.0000000     0.1697633
   11     0.1147797     0.0075994     0.0219032     0.0032872     0.0709220     0.0568307     0.1303223     0.0000000
   12    -0.1211557    -0.0080966     0.1277651    -0.0319064     0.1778721     0.0093261     0.0796573     0.0000000
   13     0.0100812     0.2124810    -0.0584124     0.2216207     0.1073213    -0.1730116     0.0000000     0.6972180
   14     0.0423711     0.0034213     0.2827508     0.0069095     0.1702015     0.0256371    -0.3312270     0.0000000
   15    -0.0808404    -0.0057704    -0.0174686    -0.0339232     0.1225957     0.0266940    -0.0651961     0.0000000
   16    -0.0789744    -0.2377415    -0.0247853     0.4474537     0.0259785     0.1425446     0.0000000    -0.3991587
   17     0.0726078     0.0051660     0.1738250     0.0053969     0.1287439     0.0386630    -0.0345191     0.0000000
   18    -0.0265336    -0.0026368    -0.2131054    -0.0366400     0.0481356     0.0500893     0.4891057     0.0000000
              9            10            11            12            13            14            15            16
    1     0.0000000     0.1452248    -0.3869606     0.0000000     0.0000000     0.0000000     0.0000000     0.0000000
    2     0.0603690     0.0000000     0.0000000     0.5814268     0.2244093     0.0229302     0.2038014    -0.0438439
    3    -0.1664834     0.0000000     0.0000000    -0.2984199     0.1015591    -0.3647760     0.6593760     0.0259873
    4     0.0000000    -0.4966940     0.1146834     0.0000000     0.0000000     0.0000000     0.0000000     0.0000000
    5     0.2062756     0.0000000     0.0000000    -0.2623488    -0.2795950    -0.1537092    -0.2793674    -0.1114920
    6    -0.4628832     0.0000000     0.0000000     0.0046899    -0.1044664    -0.1155128    -0.5302526    -0.2031765
    7     0.0000000    -0.0134145     0.0300095     0.0000000     0.0000000     0.0000000     0.0000000     0.0000000
    8    -0.1261344     0.0000000     0.0000000    -0.3116516     0.0900031    -0.0033134     0.0131328    -0.0000662
    9     0.4864046     0.0000000     0.0000000     0.3607184    -0.0595692     0.1009213    -0.0998052     0.0000975
   10     0.0000000     0.0742474     0.7949659     0.0000000     0.0000000     0.0000000     0.0000000     0.0000000
   11     0.0074086     0.0000000     0.0000000     0.1882245     0.0268640    -0.0268926     0.1199642     0.1984997
   12     0.1279073     0.0000000     0.0000000    -0.3175683     0.7850873     0.3955612    -0.1896517     0.0081989
   13     0.0000000     0.5264009    -0.3123472     0.0000000     0.0000000     0.0000000     0.0000000     0.0000000
   14    -0.4090096     0.0000000     0.0000000     0.1209930    -0.1553729     0.5490922     0.2157319    -0.3375253
   15    -0.4031185     0.0000000     0.0000000     0.1004230    -0.0866580     0.3163084    -0.0214840     0.5775874
   16     0.0000000     0.6703837     0.3266146     0.0000000     0.0000000     0.0000000     0.0000000     0.0000000
   17     0.0291554     0.0000000     0.0000000    -0.0571201    -0.0718378    -0.0565438    -0.1319655     0.6753193
   18     0.3350681     0.0000000     0.0000000    -0.3354551    -0.4297624     0.5072520     0.1989092     0.0252042
             17            18
    1     0.0000000     0.0000000
    2    -0.2727145     0.0901116
    3    -0.0464467     0.0109001
    4     0.0000000     0.0000000
    5     0.1194632     0.2613665
    6     0.0118861    -0.1705289
    7     0.0000000     0.0000000
    8     0.0013248    -0.0020988
    9     0.0030170     0.0024502
   10     0.0000000     0.0000000
   11     0.8897882    -0.2803373
   12     0.0581051    -0.0197772
   13     0.0000000     0.0000000
   14    -0.0380598    -0.3307217
   15     0.0647792     0.5946157
   16     0.0000000     0.0000000
   17    -0.3286670    -0.5926485
   18    -0.0167276    -0.0346573

   Low Vibration      Wavenumber
        Nr             [1/cm] 
        1                0.00
        2                0.00
        3                0.00
        4                0.00
        5                0.00
        6                0.00

     Vibration        Wavenumber
        Nr             [1/cm] 
        1              524.50
        2              802.79
        3             1026.60
        4             1038.27
        5             1081.49
        6             1281.45
        7             1452.07
        8             1548.67
        9             1867.31
       10             3307.57
       11             3354.87
       12             3387.55

 FREQUENCIES * CALCULATION OF NORMAL MODES FOR HF-SCF


 Atomic Coordinates

  Nr  Atom  Charge       X              Y              Z

   1   C1    6.00    0.000000000   -0.810466933    0.218283633
   2   C2    6.00    0.000000000    0.389752447    2.373944187
   3   F     9.00    0.000000000    0.319798233   -1.994616139
   4   H1    1.00    0.000000000   -2.834582510    0.126529323
   5   H2    1.00    0.000000000   -0.598391929    4.142851595
   6   H3    1.00    0.000000000    2.413868025    2.465698498

 Gradient norm at reference geometry: 0.19937D-01

 ?WARNING: GRADIENT NORM NOT ZERO!

 Normal Modes

                              1 A`        2 A``       3 A`        4 A``       5 A``
 Wavenumbers [cm-1]          524.50      802.79     1026.60     1038.27     1081.49
 Intensities [km/mol]          0.00        0.00        0.00        0.00        0.00
 Intensities [relative]        0.00        0.00        0.00        0.00        0.00
           C1X1            -0.00000    -0.14765    -0.00000     0.04192    -0.11171
           C1Y1             0.13471     0.00000     0.01743     0.00000     0.00000
           C1Z1             0.00696     0.00000    -0.04806    -0.00000     0.00000
           C2X2             0.00000     0.02004     0.00000    -0.14338     0.03311
           C2Y2            -0.01578     0.00000     0.05955     0.00000    -0.00000
           C2Z2             0.10786     0.00000    -0.13362    -0.00000     0.00000
           FX3             -0.00000     0.05588     0.00000    -0.00308     0.00688
           FY3             -0.06268    -0.00000    -0.02894    -0.00000     0.00000
           FZ3             -0.09914     0.00000     0.11159     0.00000    -0.00000
           H1X4             0.00000     0.16910     0.00000     0.07396     0.79187
           H1Y4             0.12982    -0.00000     0.00738    -0.00000    -0.00000
           H1Z4             0.07935    -0.00000     0.12741     0.00000    -0.00000
           H2X5             0.00000     0.69451    -0.00000     0.52435    -0.31113
           H2Y5            -0.32994     0.00000    -0.40742    -0.00000     0.00000
           H2Z5            -0.06494    -0.00000    -0.40155    -0.00000     0.00000
           H3X6             0.00000    -0.39761    -0.00000     0.66778     0.32534
           H3Y6            -0.03438    -0.00000     0.02904    -0.00000    -0.00000
           H3Z6             0.48720    -0.00000     0.33376     0.00000    -0.00000

                              6 A`        7 A`        8 A`        9 A`       10 A` 
 Wavenumbers [cm-1]         1281.45     1452.07     1548.67     1867.31     3307.57
 Intensities [km/mol]          0.00        0.00        0.00        0.00        0.00
 Intensities [relative]        0.00        0.00        0.00        0.00        0.00
           C1X1             0.00000     0.00000    -0.00000    -0.00000    -0.00000
           C1Y1             0.16784     0.06478     0.00662     0.05883    -0.01266
           C1Z1            -0.08615     0.02932    -0.10530     0.19035     0.00750
           C2X2            -0.00000     0.00000     0.00000    -0.00000    -0.00000
           C2Y2            -0.07573    -0.08071    -0.04437    -0.08065    -0.03218
           C2Z2             0.00135    -0.03016    -0.03335    -0.15307    -0.05865
           FX3             -0.00000    -0.00000     0.00000     0.00000     0.00000
           FY3             -0.07150     0.02065    -0.00076     0.00301    -0.00002
           FZ3              0.08276    -0.01367     0.02315    -0.02290     0.00002
           H1X4             0.00000     0.00000    -0.00000    -0.00000    -0.00000
           H1Y4             0.18749     0.02676    -0.02679     0.11950     0.19773
           H1Z4            -0.31633     0.78203     0.39402    -0.18891     0.00817
           H2X5            -0.00000     0.00000    -0.00000    -0.00000     0.00000
           H2Y5             0.12052    -0.15477     0.54696     0.21489    -0.33621
           H2Z5             0.10003    -0.08632     0.31508    -0.02140     0.57534
           H3X6             0.00000    -0.00000     0.00000     0.00000    -0.00000
           H3Y6            -0.05690    -0.07156    -0.05632    -0.13145     0.67269
           H3Z6            -0.33415    -0.42809     0.50528     0.19814     0.02511

                             11 A`       12 A` 
 Wavenumbers [cm-1]         3354.87     3387.55
 Intensities [km/mol]          0.00        0.00
 Intensities [relative]        0.00        0.00
           C1X1            -0.00000     0.00000
           C1Y1            -0.07873     0.02601
           C1Z1            -0.01341     0.00315
           C2X2            -0.00000    -0.00000
           C2Y2             0.03449     0.07545
           C2Z2             0.00343    -0.04923
           FX3             -0.00000     0.00000
           FY3              0.00030    -0.00048
           FZ3              0.00069     0.00056
           H1X4            -0.00000    -0.00000
           H1Y4             0.88633    -0.27925
           H1Z4             0.05788    -0.01970
           H2X5             0.00000     0.00000
           H2Y5            -0.03791    -0.32944
           H2Z5             0.06453     0.59230
           H3X6            -0.00000    -0.00000
           H3Y6            -0.32739    -0.59034
           H3Z6            -0.01666    -0.03452


 Normal Modes of low/zero frequencies

                                  1           2           3           4           5
 Wavenumbers [cm-1]            0.00        0.00        0.00        0.00        0.00
 Intensities [km/mol]          0.00        0.00        0.00        0.00        0.00
 Intensities [relative]        0.00        0.00        0.00        0.00        0.00
           C1X1            -0.01450     0.21699    -0.00072    -0.00031     0.00046
           C1Y1             0.11269     0.00747     0.02775     0.00336     0.07291
           C1Z1            -0.08433    -0.00597    -0.00368    -0.03360     0.12734
           C2X2            -0.02834     0.05663    -0.02916     0.23268     0.04651
           C2Y2             0.07397     0.00524     0.16721     0.00529     0.12598
           C2Z2            -0.06278    -0.00472    -0.08133    -0.03468     0.09779
           FX3             -0.05985     0.03844     0.03528     0.00370    -0.07387
           FY3              0.15243     0.00977    -0.11541     0.00137     0.01842
           FZ3             -0.06404    -0.00480    -0.07680    -0.03462     0.09951
           H1X4             0.03582     0.51044    -0.00520    -0.21335     0.02110
           H1Y4             0.11433     0.00757     0.02182     0.00327     0.07065
           H1Z4            -0.12068    -0.00807     0.12727    -0.03178     0.17718
           H2X5             0.01004     0.21165    -0.05819     0.22076     0.10690
           H2Y5             0.04221     0.00341     0.28165     0.00688     0.16954
           H2Z5            -0.08053    -0.00575    -0.01740    -0.03379     0.12212
           H3X6            -0.07867    -0.23682    -0.02469     0.44571     0.02588
           H3Y6             0.07233     0.00515     0.17315     0.00538     0.12824
           H3Z6            -0.02643    -0.00263    -0.21228    -0.03650     0.04795

                                  6
 Wavenumbers [cm-1]            0.00
 Intensities [km/mol]          0.00
 Intensities [relative]        0.00
           C1X1            -0.00000
           C1Y1             0.05590
           C1Z1             0.02495
           C2X2            -0.01060
           C2Y2             0.03922
           C2Z2             0.03423
           FX3              0.19412
           FY3              0.07302
           FZ3              0.03369
           H1X4            -0.15259
           H1Y4             0.05661
           H1Z4             0.00929
           H2X5            -0.17234
           H2Y5             0.02554
           H2Z5             0.02659
           H3X6             0.14199
           H3Y6             0.03851
           H3Z6             0.04989


 Frequencies dumped to record   5400.2

 Zero point energy:  0.04709688 [H]    10336.57 [1/CM]      123.65 [KJ/MOL]
 Frequency information read from record  5400.2


 **********************************************************************************************************************************
 DATASETS  * FILE   NREC   LENGTH (MB)   RECORD NAMES
              1      18       28.98       500      610      700      900      950      970     1000      129      960     1100   
                                          VAR    BASINP    GEOM    SYMINP    ZMAT    AOBASIS   BASIS     P2S    ABASIS      S 
                                         1400     1410     1200     1210     1080     1600     1650     1700   
                                           T        V       H0       H01     AOSYM     SMH    MOLCAS    OPER   

              2       7        0.69       700     1000      520     2100     5300     5450     5400   
                                         GEOM     BASIS   MCVARS     RHF     HESS     NMOD     FREQ   

              4       5        2.23      4100     4000     4200     4300     4400   

 PROGRAMS   *        TOTAL      FREQ      OPTG    HF-SCF       INT
 CPU TIMES  *        30.59      8.16     21.33      0.16      0.71
 REAL TIME  *        35.16 SEC
 DISK USED  *        30.29 MB (local),      621.36 MB (total)
 SF USED    *         2.23 MB
 GA USED    *         0.00 MB       (max)       0.00 MB       (current)
 **********************************************************************************************************************************

 Dump information in style MOLDEN to c2h3f.molden                                                                    

 Molecular orbitals read from record     2100.2  Type=RHF/CANONICAL  
 Occupation numbers read from record     2100.2  Type=RHF/RHF  
 Orbital energies read from record       2100.2  Type=RHF/CANONICAL  
 Redundancy group numbers read from rec  2100.2  Type=RHF/RHF  

 DUMP ORBITAL  1.1 AS ORBITAL    1  occ=    2.0000  eig=  -26.3122  GROUP=   2
 DUMP ORBITAL  2.1 AS ORBITAL    2  occ=    2.0000  eig=  -11.3201  GROUP=   2
 DUMP ORBITAL  3.1 AS ORBITAL    3  occ=    2.0000  eig=  -11.2250  GROUP=   2
 DUMP ORBITAL  4.1 AS ORBITAL    4  occ=    2.0000  eig=   -1.6403  GROUP=   2
 DUMP ORBITAL  5.1 AS ORBITAL    5  occ=    2.0000  eig=   -1.0553  GROUP=   2
 DUMP ORBITAL  6.1 AS ORBITAL    6  occ=    2.0000  eig=   -0.8408  GROUP=   2
 DUMP ORBITAL  7.1 AS ORBITAL    7  occ=    2.0000  eig=   -0.7476  GROUP=   2
 DUMP ORBITAL  1.2 AS ORBITAL    8  occ=    2.0000  eig=   -0.6991  GROUP=   2
 DUMP ORBITAL  8.1 AS ORBITAL    9  occ=    2.0000  eig=   -0.6923  GROUP=   2
 DUMP ORBITAL  9.1 AS ORBITAL   10  occ=    2.0000  eig=   -0.5895  GROUP=   2
 DUMP ORBITAL 10.1 AS ORBITAL   11  occ=    2.0000  eig=   -0.5497  GROUP=   2
 DUMP ORBITAL  2.2 AS ORBITAL   12  occ=    2.0000  eig=   -0.3845  GROUP=   2

 Total charge:      24.000000
 Frequency information read from record  5400.2

 **********************************************************************************************************************************

 HF/cc-pVTZ//HF/cc-pVTZ energy=   -176.953948138213

    OPTG(HF-SCF)          HF-SCF
   -176.95394814   -176.92345573
 **********************************************************************************************************************************
 Molpro calculation terminated
