[Molden Format]
[Molpro variables]
_NUMVAR=  1054.000000000000    
_AVOGAD= 0.6022140760000000E+24
_BOLTZ= 0.1380649000000000E-22
_CLIGHTSI=  299792458.0000000    
_JOULE= 0.4359744722207100E-17
_JPCAL=  4.184000000000000    
_PLANCK= 0.6626070150000000E-33
_BOHR= 0.5291772109030000E-10
_ECHARG= 0.1602176634000000E-18
_ENULL= 0.8854187812800001E-11
_MU= 0.1660539066600000E-26
_EMASS= 0.9109383701500001E-30
_AMU2AU=  1822.888486217313    
_CLIGHT=  29979245800.00000    
_EV= 0.3674932217565494E-01
_KJOULE= 0.3808798847133432E-03
_KJOULE/MOL= 0.3808798847133432E-03
_CM= 0.4556335252912009E-05
_CM-1= 0.4556335252912009E-05
_DEB2SI= 0.3335640951981520E-29
_KCAL= 0.1593601437640628E-02
_KCAL/MOL= 0.1593601437640628E-02
_KELVIN= 0.3166811563455608E-05
_HERTZ= 0.1519829846057038E-15
_HZ= 0.1519829846057038E-15
_TOA= 0.5291772109030000    
_TOANG= 0.5291772109030000    
_TORAD= 0.1745329251994330E-01
_TOCM=  219474.6313631965    
_TODEBYE=  2.541746473194078    
_TOE= 0.4803204712570263E-09
_TOEV=  27.21138624598803    
_TOHERTZ=  6579683920501656.    
_TOHZ=  6579683920501656.    
_TOK=  315775.0248040668    
_TOKCAL=  627.5094740630558    
_TOKELVIN=  315775.0248040668    
_TOKJ=  2625.499639479825    
_TOKJOULE=  2625.499639479825    
_TOKG= 0.1660539066600000E-26
_ANG=  1.889726124625770    
_ANGSTROM=  1.889726124625770    
_RPAREF=  0.000000000000000    
_RPADISS=  0.000000000000000    
_IGNORE_UNDEF=  2.000000000000000    
_STRICTCHECK=  0.000000000000000    
!SEWARD=  0.000000000000000    
!MULTI=  0.000000000000000    
!DFMULTI=  0.000000000000000    
_SEW_ONEEL=  0.000000000000000    
_CPPDONE=FALSE
_DKROLL_DONE=  0.000000000000000    
_FNUC_DONE=  0.000000000000000    
_FOCKDONE=TRUE
_GRADONE=FALSE
_HESSDONE=TRUE
_INTDONE=TRUE
_SCFDONE=TRUE
_MODUL_BLOCK=FALSE
_MODUL_CUDA=FALSE
_MODUL_SLATER=FALSE
_MODUL_MRCC=FALSE
_MODUL_NBO6=FALSE
_MODUL_NECI=FALSE
_MODUL_AIMS=TRUE
_MODUL_GECCO=FALSE
_ISWINDOWS=FALSE
_MRCC_EXEC=
_FITC_AO_SAVED=FALSE
_FITC_MO_SAVED=FALSE
_SHARED_FS=TRUE
_LSTYP=SEWARD
_INTYP=INTS
_GEOMTYP=ZMAT
_GRADTYP=ALASKA
_DIRECT=FALSE
_DKHO= -1.000000000000000    
_FNUC=  0.000000000000000    
_SYNCM=  0.000000000000000    
_BASIS=VTZ
_ZCENTRE=MASS
_ZORIENT=  1.000000000000000    
_NELEC=  24.00000000000000    
!SPIN=  0.000000000000000    
_OPTCONV= 0.3006740928157732E-07
_QSDSTEP=  0.000000000000000    
_QSDIRC=  0.000000000000000    
_PROGRAM=FREQ
_CPUSTEP=  8.170000000000002    
_SYSSTEP= 0.2500000000000000    
_WALLSTEP=  8.619999999999999    
!DFSCF=  0.000000000000000    
!SCSGRD=  0.000000000000000    
_CPUTOT=  30.59000000000000    
_DFTEXFAC=  1.000000000000000    
_DMX=  0.000000000000000    
_DMY=-0.3073969412434288    
_DMZ= 0.4821772635448207    
_DMX_SCF=  0.000000000000000    
_DMY_SCF=-0.3073969412434288    
_DMZ_SCF= 0.4821772635448207    
_FREQUENCIES= 0.4925794698418633E-04
_HOMO=  2.200000000000000    
_EHOMO=-0.3844962054006691    
_LUMO=  11.10000000000000    
_ELUMO= 0.1598679648264753    
_ENERGY= -176.9539481382127    
_ENERGY_METHOD=HF
_ENERGY_BASIS=cc-pVTZ
_GEOMETRY_METHOD=HF
_GEOMETRY_BASIS=cc-pVTZ
_ENUC=  68.47181553109843    
_GRADENERG= -176.9539481382086    
_GRADEXFAC=  9999.000000000000    
_GRADMETHOD=  1.000000000000000    
_NMRMETHOD=  0.000000000000000    
_NMRMAGNET=  0.000000000000000    
_VIRIAL= 0.4145469979094374E-07
!GRID_FREEZE= -1.000000000000000    
!NEESE_INDEX=  0.000000000000000    
_ITERATIONS=  2.000000000000000    
_LASTNELEC=  24.00000000000000    
_LASTSPIN=  0.000000000000000    
_LASTSYM=  1.000000000000000    
_MPP_PROG=  1.000000000000000    
_MSNSTATES=  0.000000000000000    
_RS2PHASE=  0.000000000000000    
_IPROC_MPP=  0.000000000000000    
_IPROC_MPPX=  0.000000000000000    
_NPROC_MPP=  10.00000000000000    
_NPROC_MPPX=  10.00000000000000    
_NPROC_SMP=  1.000000000000000    
_NUMSTEP=  0.000000000000000    
_OPTCONVMX= 0.2810658766687606E-07
_OPTCONVRMS= 0.6013481856315464E-08
_OPTGRAD= 0.2989595998574009E-07
_OPTGRADMX= 0.2050547380467523E-07
_OPTGRADRMS= 0.1336987975614570E-07
_OPTSTEP=  16.00000000000000    
_ORBITAL=  2100.200000000000    
_PI=  3.141592653589793    
_SEIG_MIN= 0.6964719469692476E-03
_SEWPROP=TRUE
_STATUS=  1.000000000000000    
_SYSTOT=  2.350000000000000    
_VERSION=  2022001.000000000    
_WALLTOT=  35.16000000000000    
_ZPE= 0.4709688349459561E-01
_DATE=13-Jan-23
_LASTORB=0
_OUTPUT=/home/koe/delocalized_ic/fluoroethylene/c2h3f.out
_PGROUP=Cs
_TIME=12:23:18
_LIBMOL=/usr/local/molpro/molpro_2022.1/lib/
_VIGRDC=  0.000000000000000    
!VIBCNT=  0.000000000000000    
!RGHFCNT=  0.000000000000000    
!SURFREC=  0.000000000000000    
!XSURFREC=  0.000000000000000    
!XPOLYREC=  0.000000000000000    
!ROTREC=  0.000000000000000    
!POLYREC=  0.000000000000000    
!DIPREC=  0.000000000000000    
!DIP4DREC=  0.000000000000000    
!DIPROT=  0.000000000000000    
!DIP4DROT=  0.000000000000000    
!PTREC=  0.000000000000000    
!PT4DREC=  0.000000000000000    
!VSCFREC=  0.000000000000000    
!VCIREC=  0.000000000000000    
!PVCIREC=  0.000000000000000    
!VMP2REC=  0.000000000000000    
!VMCSCFREC=  0.000000000000000    
!VMRCIREC=  0.000000000000000    
!VIBSTATEREC=  0.000000000000000    
!VIBSTATECNT=  0.000000000000000    
!VIBINFO=  0.000000000000000    
!GAREC=  0.000000000000000    
!SCFORB=  21002.00000000000    
!DEFCORE=  3.000000000000000    
!SCORE=  0.000000000000000    
!NEWMOL=  0.000000000000000    
!NEWSYM=  0.000000000000000    
_SLFILES=slscratch
_NGSSTO=  9.000000000000000    
_SIN=SIN
_COS=COS
_TAN=TAN
_ACOS=ACOS
_ASIN=ASIN
_ATAN=ATAN
_COSH=COSH
_SINH=SINH
_TANH=TANH
_ABS=ABS
_MOD=MOD
_ERF=ERF
_REFC=REFC
_ERFC=ERFC
_HYPOT=HYPOT
_J0=J0
_J1=J1
_JN=JN
_GAMMA=GAMMA
_LGAMMA=LGAMMA
_Y0=Y0
_Y1=Y1
_YN=YN
_EXP=EXP
_LOG=LOG
_LOG10=LOG10
_SQRT=SQRT
_INT=INT
_NINT=NINT
_MAX=MAX
_MIN=MIN
_COSMO=  0.000000000000000    
_COSMOIT=  0.000000000000000    
_COSMOES=  0.000000000000000    
_COSMOEDS=  0.000000000000000    
_COSMOEC=  0.000000000000000    
_COSMOEDCORR=  0.000000000000000    
_FEPSI=  1.000000000000000    
_SL_IsMM=  0.000000000000000    
_SL_NSYM=  2.000000000000000    
_SL_System_BitSw=  0.000000000000000    
_SL_Unique_atoms=  0.000000000000000    
_SL_GRAD=  0.000000000000000    
_SL_MAXUPD_Hess=  5.000000000000000    
_SL_N_PRINT_COD=  5.000000000000000    
_SL_PRINT_CODES=  0.000000000000000    
_SL_BasType=  0.000000000000000    
_SL_Energy_Pred=  0.000000000000000    
_SL_New_Coords=  0.000000000000000    
_SL_Total_Nuclea=  0.000000000000000    
_SL_Highest_Mltp=  0.000000000000000    
_SL_Ref_Geom=  0.000000000000000    
_SL_Symmetry_ope=  1.000000000000000    
_SL_agrad=  0.000000000000000    
_SL_GrdMax=  0.000000000000000    
_SL_GrdNorm=  0.000000000000000    
_SL_GrdRMS=  0.000000000000000    
_SL_Hss_Q=  0.000000000000000    
_SL_Hss_X=  0.000000000000000    
_SL_BMxOld=  0.000000000000000    
_SL_KtB=  0.000000000000000    
_SL_TROld=  0.000000000000000    
_SL_No_of_Intern=  0.000000000000000    
_SL_Hess=  0.000000000000000    
_SL_K=  0.000000000000000    
!LATTICE= -1.000000000000000    
!NEWLATTICE=  0.000000000000000    
!LATGRAD_VAR=FALSE
!SEW_LATTICE=  1.000000000000000    
!AIC_ONEEL=  0.000000000000000    
!LOCAL=  0.000000000000000    
!SAVEDOM= -1.000000000000000    
!RESTDOM= -1.000000000000000    
!SAVEDOM_HF= -1.000000000000000    
!RESTDOM_HF= -1.000000000000000    
!HESSREC=  5300.200000000000    
!FREQREC=  5400.200000000000    
!NMODREC=  5450.200000000000    
!GTASKS=  0.000000000000000    
!HTASKS=  0.000000000000000    
!SAVEDOM_EOM= -1.000000000000000    
!RESTDOM_EOM= -1.000000000000000    
!GRADSTATE= -1.000000000000000    
!DEBUG=  0.000000000000000    
!CFIT_CPHF=  0.000000000000000    
!RDOMAUX_CPHF=  0.000000000000000    
!THRAO_CPHF= 0.1000000000000000E-11
!THRMO_CPHF= 0.1000000000000000E-11
!THROV_CPHF= 0.1000000000000000E-11
!THRSW_CPHF= 0.1000000000000000E-11
!THRPROD_CPHF= 0.1000000000000000E-11
!THRAOPR_CPHF= 0.1000000000000000E-11
!CFIT_SCFGRD=  0.000000000000000    
!RDOMAUX_SCFGRD=  0.000000000000000    
!THRAO_SCFGRD= 0.1000000000000000E-11
!THRMO_SCFGRD= 0.1000000000000000E-11
!THROV_SCFGRD= 0.1000000000000000E-11
!THRSW_SCFGRD= 0.1000000000000000E-11
!THRPROD_SCFGRD= 0.1000000000000000E-11
!THRAOPR_SCFGRD= 0.1000000000000000E-11
!LOCFIT_SCF=  0.000000000000000    
!LOCFIT_MP2=  0.000000000000000    
_RIDOM=  0.000000000000000    
!CC2_METHOD=  0.000000000000000    
_BASIS2006=FALSE
_SVDDEL= -1.000000000000000    
_SVDDELA= -1.000000000000000    
_SVDDELP= -1.000000000000000    
_SVDDELF= -1.000000000000000    
_SVDDELS= -1.000000000000000    
_SVDDEL_ABS= -1.000000000000000    
_SVDDELA_ABS= -1.000000000000000    
_SVDDELP_ABS= -1.000000000000000    
_SVDDELF_ABS= -1.000000000000000    
_SVDDELS_ABS= -1.000000000000000    
_MAXBASIS=  0.000000000000000    
!OPT_CONICAL=  0.000000000000000    
!CLEARSP_JGRID=  0.000000000000000    
_GRDHYBR=  0.000000000000000    
_STATEGRAD=  1.000000000000000    
_4EXT_NDISKS=  1.000000000000000    
!EMBEDFLAG=  1.000000000000000    
!EMBED=FALSE
!EMBED_F12=FALSE
!EMBEDNUC=  0.000000000000000    
_EMBEDENERGY=  0.000000000000000    
!EMBED_DFC=FALSE
!NUM_VOIDS=  0.000000000000000    
_IBODY=  0.000000000000000    
_EMBE_CORR=  0.000000000000000    
!EMBED_PROJ=FALSE
!EMB_PROJ_ZMU=  1000000.000000000    
!CORRECTION_HF=  0.000000000000000    
!EMBED_AORB=  0.000000000000000    
!EMBED_NACORR=  0.000000000000000    
!EMBED_MP2=FALSE
!EMBED_TRUNC_PERTURBATION=FALSE
!EMBED_FROZEN=  0.000000000000000    
!EMBED_ACTIVE=  0.000000000000000    
_CHANGE_BASIS=FALSE
_RESTORE_BASIS=FALSE
_FIX_EMBED_GUESS=FALSE
_EMBED_SCF=FALSE
_HUZINAGA_T=FALSE
_HUZINAGA_F=FALSE
_HUZINAGA=FALSE
_HUZINAGA_CORRECT=FALSE
!FASTLATGRAD=  1.000000000000000    
!FASTVLAMBDA= -1.000000000000000    
!IFORCE= -1.000000000000000    
!USESYM= -1.000000000000000    
_SINDEX=  0.000000000000000    
_AVDOM_OSV=  0.000000000000000    
_AVDOM_PNO=  0.000000000000000    
_AVDOM_PAO=  0.000000000000000    
_AVDOM_LMO=  0.000000000000000    
_CC2OSV_FLAG=  0.000000000000000    
_EOMCCSD_CONV=FALSE
_TMADC2_FLAG=FALSE
_PROPADC2_FLAG=FALSE
_LEN_VirQ=  0.000000000000000    
_GRDCC2LR_FLAG=FALSE
_GRDADC2_FLAG=FALSE
_RO_VGLOBAL=  0.000000000000000    
_OPT=FALSE
_FREQ=FALSE
_HESS=FALSE
_CMRCC_callName=EMPTY
_CMRCC_callCount=  0.000000000000000    
_GECCO_CIROOT=  1.000000000000000    
_SYM_CATION=  2.000000000000000    
_MON_A=FALSE
_MON_B=FALSE
RCC=  1.305620669327121    
RCF=  1.314920159992107    
CCF=  123.8357835964265    
RCH=  1.072215767825637    
CCH=  121.7034703374217    
GX1=-0.9246122171099999E-17
GY1=-0.8104669329702109    
GZ1= 0.2182836330641881    
GX2=-0.9246122171099999E-17
GY2= 0.3897524473556929    
GZ2=  2.373944187460735    
GX3=-0.9246122171099999E-17
GY3= 0.3197982329790358    
GZ3= -1.994616139157013    
GX4= 0.2018638814471337E-15
GY4= -2.834582510367064    
GZ4= 0.1265293225602235    
GX5=-0.2203561257893337E-15
GY5=-0.5983919287477937    
GZ5=  4.142851594910800    
GX6= 0.4129738850653675E-15
GY6=  2.413868024752546    
GZ6=  2.465698497964700    
C1X1=  0.000000000000000    
C1Y1=-0.8104669329702109    
C1Z1= 0.2182836330641881    
C2X2=  0.000000000000000    
C2Y2= 0.3897524473556929    
C2Z2=  2.373944187460735    
FX3=  0.000000000000000    
FY3= 0.3197982329790358    
FZ3= -1.994616139157013    
H1X4=  0.000000000000000    
H1Y4= -2.834582510367064    
H1Z4= 0.1265293225602235    
H2X5=  0.000000000000000    
H2Y5=-0.5983919287477937    
H2Z5=  4.142851594910800    
H3X6=  0.000000000000000    
H3Y6=  2.413868024752546    
H3Z6=  2.465698497964700    
[Atoms] Angs
C     1    6         0.0000000000       -0.4288806311        0.1155107241
C     2    6         0.0000000000        0.2062481130        1.2562371640
F     3    9         0.0000000000        0.1692299370       -1.0555054053
H     4    1         0.0000000000       -1.4999964669        0.0669564340
H     5    1         0.0000000000       -0.3166553719        2.1923026522
H     6    1         0.0000000000        1.2773639488        1.3047914541
[GTO]
   1 0
 s   10  1.00
  0.8236000000D+04  0.5309998617D-03
  0.1235000000D+04  0.4107998930D-02
  0.2808000000D+03  0.2108699451D-01
  0.7927000000D+02  0.8185297868D-01
  0.2559000000D+02  0.2348169388D+00
  0.8997000000D+01  0.4344008869D+00
  0.3319000000D+01  0.3461289099D+00
  0.9059000000D+00  0.3937798974D-01
  0.3643000000D+00 -0.8982997660D-02
  0.1285000000D+00  0.2384999379D-02
 s   10  1.00
  0.8236000000D+04 -0.1129999414D-03
  0.1235000000D+04 -0.8779995449D-03
  0.2808000000D+03 -0.4539997647D-02
  0.7927000000D+02 -0.1813299060D-01
  0.2559000000D+02 -0.5575997110D-01
  0.8997000000D+01 -0.1268949342D+00
  0.3319000000D+01 -0.1703519117D+00
  0.9059000000D+00  0.1403819272D+00
  0.3643000000D+00  0.5986836897D+00
  0.1285000000D+00  0.3953887950D+00
 s   10  1.00
  0.8236000000D+04  0.0000000000D+00
  0.1235000000D+04  0.0000000000D+00
  0.2808000000D+03  0.0000000000D+00
  0.7927000000D+02  0.0000000000D+00
  0.2559000000D+02  0.0000000000D+00
  0.8997000000D+01  0.0000000000D+00
  0.3319000000D+01  0.0000000000D+00
  0.9059000000D+00  0.1000000000D+01
  0.3643000000D+00  0.0000000000D+00
  0.1285000000D+00  0.0000000000D+00
 s   10  1.00
  0.8236000000D+04  0.0000000000D+00
  0.1235000000D+04  0.0000000000D+00
  0.2808000000D+03  0.0000000000D+00
  0.7927000000D+02  0.0000000000D+00
  0.2559000000D+02  0.0000000000D+00
  0.8997000000D+01  0.0000000000D+00
  0.3319000000D+01  0.0000000000D+00
  0.9059000000D+00  0.0000000000D+00
  0.3643000000D+00  0.0000000000D+00
  0.1285000000D+00  0.1000000000D+01
 p    5  1.00
  0.1871000000D+02  0.1403099838D-01
  0.4133000000D+01  0.8686598995D-01
  0.1200000000D+01  0.2902159664D+00
  0.3827000000D+00  0.5010079421D+00
  0.1209000000D+00  0.3434059603D+00
 p    5  1.00
  0.1871000000D+02  0.0000000000D+00
  0.4133000000D+01  0.0000000000D+00
  0.1200000000D+01  0.0000000000D+00
  0.3827000000D+00  0.1000000000D+01
  0.1209000000D+00  0.0000000000D+00
 p    5  1.00
  0.1871000000D+02  0.0000000000D+00
  0.4133000000D+01  0.0000000000D+00
  0.1200000000D+01  0.0000000000D+00
  0.3827000000D+00  0.0000000000D+00
  0.1209000000D+00  0.1000000000D+01
 d    1  1.00
  0.1097000000D+01  0.1000000000D+01
 d    1  1.00
  0.3180000000D+00  0.1000000000D+01
 f    1  1.00
  0.7610000000D+00  0.1000000000D+01
  
   2 0
 s   10  1.00
  0.8236000000D+04  0.5309998617D-03
  0.1235000000D+04  0.4107998930D-02
  0.2808000000D+03  0.2108699451D-01
  0.7927000000D+02  0.8185297868D-01
  0.2559000000D+02  0.2348169388D+00
  0.8997000000D+01  0.4344008869D+00
  0.3319000000D+01  0.3461289099D+00
  0.9059000000D+00  0.3937798974D-01
  0.3643000000D+00 -0.8982997660D-02
  0.1285000000D+00  0.2384999379D-02
 s   10  1.00
  0.8236000000D+04 -0.1129999414D-03
  0.1235000000D+04 -0.8779995449D-03
  0.2808000000D+03 -0.4539997647D-02
  0.7927000000D+02 -0.1813299060D-01
  0.2559000000D+02 -0.5575997110D-01
  0.8997000000D+01 -0.1268949342D+00
  0.3319000000D+01 -0.1703519117D+00
  0.9059000000D+00  0.1403819272D+00
  0.3643000000D+00  0.5986836897D+00
  0.1285000000D+00  0.3953887950D+00
 s   10  1.00
  0.8236000000D+04  0.0000000000D+00
  0.1235000000D+04  0.0000000000D+00
  0.2808000000D+03  0.0000000000D+00
  0.7927000000D+02  0.0000000000D+00
  0.2559000000D+02  0.0000000000D+00
  0.8997000000D+01  0.0000000000D+00
  0.3319000000D+01  0.0000000000D+00
  0.9059000000D+00  0.1000000000D+01
  0.3643000000D+00  0.0000000000D+00
  0.1285000000D+00  0.0000000000D+00
 s   10  1.00
  0.8236000000D+04  0.0000000000D+00
  0.1235000000D+04  0.0000000000D+00
  0.2808000000D+03  0.0000000000D+00
  0.7927000000D+02  0.0000000000D+00
  0.2559000000D+02  0.0000000000D+00
  0.8997000000D+01  0.0000000000D+00
  0.3319000000D+01  0.0000000000D+00
  0.9059000000D+00  0.0000000000D+00
  0.3643000000D+00  0.0000000000D+00
  0.1285000000D+00  0.1000000000D+01
 p    5  1.00
  0.1871000000D+02  0.1403099838D-01
  0.4133000000D+01  0.8686598995D-01
  0.1200000000D+01  0.2902159664D+00
  0.3827000000D+00  0.5010079421D+00
  0.1209000000D+00  0.3434059603D+00
 p    5  1.00
  0.1871000000D+02  0.0000000000D+00
  0.4133000000D+01  0.0000000000D+00
  0.1200000000D+01  0.0000000000D+00
  0.3827000000D+00  0.1000000000D+01
  0.1209000000D+00  0.0000000000D+00
 p    5  1.00
  0.1871000000D+02  0.0000000000D+00
  0.4133000000D+01  0.0000000000D+00
  0.1200000000D+01  0.0000000000D+00
  0.3827000000D+00  0.0000000000D+00
  0.1209000000D+00  0.1000000000D+01
 d    1  1.00
  0.1097000000D+01  0.1000000000D+01
 d    1  1.00
  0.3180000000D+00  0.1000000000D+01
 f    1  1.00
  0.7610000000D+00  0.1000000000D+01
  
   3 0
 s   10  1.00
  0.1950000000D+05  0.5070001688D-03
  0.2923000000D+04  0.3923001306D-02
  0.6645000000D+03  0.2020000673D-01
  0.1875000000D+03  0.7901002631D-01
  0.6062000000D+02  0.2304390767D+00
  0.2142000000D+02  0.4328721441D+00
  0.7950000000D+01  0.3499641165D+00
  0.2257000000D+01  0.4323301440D-01
  0.8815000000D+00 -0.7892002628D-02
  0.3041000000D+00  0.2384000794D-02
 s   10  1.00
  0.1950000000D+05 -0.1169999533D-03
  0.2923000000D+04 -0.9119996360D-03
  0.6645000000D+03 -0.4716998117D-02
  0.1875000000D+03 -0.1908599238D-01
  0.6062000000D+02 -0.5965497619D-01
  0.2142000000D+02 -0.1400099441D+00
  0.7950000000D+01 -0.1767819294D+00
  0.2257000000D+01  0.1716249315D+00
  0.8815000000D+00  0.6050427585D+00
  0.3041000000D+00  0.3695118525D+00
 s   10  1.00
  0.1950000000D+05  0.0000000000D+00
  0.2923000000D+04  0.0000000000D+00
  0.6645000000D+03  0.0000000000D+00
  0.1875000000D+03  0.0000000000D+00
  0.6062000000D+02  0.0000000000D+00
  0.2142000000D+02  0.0000000000D+00
  0.7950000000D+01  0.0000000000D+00
  0.2257000000D+01  0.1000000000D+01
  0.8815000000D+00  0.0000000000D+00
  0.3041000000D+00  0.0000000000D+00
 s   10  1.00
  0.1950000000D+05  0.0000000000D+00
  0.2923000000D+04  0.0000000000D+00
  0.6645000000D+03  0.0000000000D+00
  0.1875000000D+03  0.0000000000D+00
  0.6062000000D+02  0.0000000000D+00
  0.2142000000D+02  0.0000000000D+00
  0.7950000000D+01  0.0000000000D+00
  0.2257000000D+01  0.0000000000D+00
  0.8815000000D+00  0.0000000000D+00
  0.3041000000D+00  0.1000000000D+01
 p    5  1.00
  0.4388000000D+02  0.1666500251D-01
  0.9926000000D+01  0.1044720157D+00
  0.2930000000D+01  0.3172600478D+00
  0.9132000000D+00  0.4873430734D+00
  0.2672000000D+00  0.3346040504D+00
 p    5  1.00
  0.4388000000D+02  0.0000000000D+00
  0.9926000000D+01  0.0000000000D+00
  0.2930000000D+01  0.0000000000D+00
  0.9132000000D+00  0.1000000000D+01
  0.2672000000D+00  0.0000000000D+00
 p    5  1.00
  0.4388000000D+02  0.0000000000D+00
  0.9926000000D+01  0.0000000000D+00
  0.2930000000D+01  0.0000000000D+00
  0.9132000000D+00  0.0000000000D+00
  0.2672000000D+00  0.1000000000D+01
 d    1  1.00
  0.3107000000D+01  0.1000000000D+01
 d    1  1.00
  0.8550000000D+00  0.1000000000D+01
 f    1  1.00
  0.1917000000D+01  0.1000000000D+01
  
   4 0
 s    5  1.00
  0.3387000000D+02  0.6067999217D-02
  0.5095000000D+01  0.4530799416D-01
  0.1159000000D+01  0.2028219738D+00
  0.3258000000D+00  0.5039029350D+00
  0.1027000000D+00  0.3834209505D+00
 s    5  1.00
  0.3387000000D+02  0.0000000000D+00
  0.5095000000D+01  0.0000000000D+00
  0.1159000000D+01  0.0000000000D+00
  0.3258000000D+00  0.1000000000D+01
  0.1027000000D+00  0.0000000000D+00
 s    5  1.00
  0.3387000000D+02  0.0000000000D+00
  0.5095000000D+01  0.0000000000D+00
  0.1159000000D+01  0.0000000000D+00
  0.3258000000D+00  0.0000000000D+00
  0.1027000000D+00  0.1000000000D+01
 p    1  1.00
  0.1407000000D+01  0.1000000000D+01
 p    1  1.00
  0.3880000000D+00  0.1000000000D+01
 d    1  1.00
  0.1057000000D+01  0.1000000000D+01
  
   5 0
 s    5  1.00
  0.3387000000D+02  0.6067999217D-02
  0.5095000000D+01  0.4530799416D-01
  0.1159000000D+01  0.2028219738D+00
  0.3258000000D+00  0.5039029350D+00
  0.1027000000D+00  0.3834209505D+00
 s    5  1.00
  0.3387000000D+02  0.0000000000D+00
  0.5095000000D+01  0.0000000000D+00
  0.1159000000D+01  0.0000000000D+00
  0.3258000000D+00  0.1000000000D+01
  0.1027000000D+00  0.0000000000D+00
 s    5  1.00
  0.3387000000D+02  0.0000000000D+00
  0.5095000000D+01  0.0000000000D+00
  0.1159000000D+01  0.0000000000D+00
  0.3258000000D+00  0.0000000000D+00
  0.1027000000D+00  0.1000000000D+01
 p    1  1.00
  0.1407000000D+01  0.1000000000D+01
 p    1  1.00
  0.3880000000D+00  0.1000000000D+01
 d    1  1.00
  0.1057000000D+01  0.1000000000D+01
  
   6 0
 s    5  1.00
  0.3387000000D+02  0.6067999217D-02
  0.5095000000D+01  0.4530799416D-01
  0.1159000000D+01  0.2028219738D+00
  0.3258000000D+00  0.5039029350D+00
  0.1027000000D+00  0.3834209505D+00
 s    5  1.00
  0.3387000000D+02  0.0000000000D+00
  0.5095000000D+01  0.0000000000D+00
  0.1159000000D+01  0.0000000000D+00
  0.3258000000D+00  0.1000000000D+01
  0.1027000000D+00  0.0000000000D+00
 s    5  1.00
  0.3387000000D+02  0.0000000000D+00
  0.5095000000D+01  0.0000000000D+00
  0.1159000000D+01  0.0000000000D+00
  0.3258000000D+00  0.0000000000D+00
  0.1027000000D+00  0.1000000000D+01
 p    1  1.00
  0.1407000000D+01  0.1000000000D+01
 p    1  1.00
  0.3880000000D+00  0.1000000000D+01
 d    1  1.00
  0.1057000000D+01  0.1000000000D+01


[MO]
 Sym=      1.1
 Ene=     -26.3122
 Spin= Alpha
 Occup=    2.000000
1 0.000276267441727
2 0.001024244979599
3 -0.000467366300340
4 -0.001204894400201
5 0.0
6 -0.000079314112377
7 0.000322478735927
8 0.0
9 0.000402335613568
10 -0.001587517722647
11 0.0
12 -0.001154593294434
13 0.000524377521965
14 -0.000236517509191
15 0.000003025183895
16 0.000233492325296
17 0.0
18 0.0
19 -0.000239157206675
20 -0.000137425598078
21 -0.000426057461965
22 0.000563483060042
23 0.0
24 0.0
25 -0.001173516343927
26 0.0
27 -0.000228866406427
28 -0.000251088286526
29 0.0
30 -0.000130788568288
31 0.000307494879329
32 0.0
33 0.000437845073810
34 0.000029375406887
35 0.0
36 0.000069335513065
37 0.000229010452247
38 0.000030642696316
39 -0.000139776625423
40 0.0
41 0.000072418426063
42 0.000196158597499
43 0.0
44 -0.000286066540874
45 -0.000926306047200
46 0.0
47 0.000836924529038
48 -0.000864327905423
49 -0.000027865430848
50 0.000037973628470
51 -0.000010108197621
52 0.0
53 0.0
54 0.000009683097381
55 0.000202658261802
56 -0.000462749596145
57 0.000260091334343
58 0.0
59 0.0
60 0.000130872066997
61 0.0
62 -0.000102338091163
63 0.000007788689202
64 0.0
65 0.000045341324731
66 0.000021718038639
67 0.0
68 0.000091959632386
69 -0.000032167661745
70 0.0
71 0.99909940678221
72 -0.002125209083120
73 0.001000836585701
74 0.001077284504486
75 0.0
76 -0.001545662078123
77 0.003072465927265
78 0.0
79 0.001389904700247
80 -0.002783514096720
81 0.0
82 0.000496860364545
83 -0.000905995733201
84 0.000002150738418
85 0.000000679360373
86 -0.000002830098791
87 0.0
88 0.0
89 -0.000001311446034
90 0.000203397279598
91 0.000116953398311
92 -0.000320350677910
93 0.0
94 0.0
95 0.000361475820099
96 0.0
97 -0.000035168000255
98 -0.000018748382871
99 0.0
100 -0.000018782228217
101 0.000030537875969
102 0.0
103 0.000065965051740
104 -0.000005384280828
105 0.0
106 0.000076927443449
107 0.000098174123764
108 -0.000424065453650
109 0.0
110 -0.000045466699705
111 0.000000292140283
112 0.0
113 0.000079158770409
114 -0.000375027117158
115 0.000022125519642
116 -0.000034471718207
117 0.000012346198564
118 0.0
119 0.0
120 -0.000051668917499
121 0.000065972807729
122 0.000557844787990
123 0.000462576254613
124 0.0
125 0.000012261906824
126 -0.000050897253226
127 0.0
128 0.000038785844832
129 -0.000149141507313
130 0.000004929088539
131 -0.000009738734883
132 0.000004809646344
133 0.0
134 0.0
135 -0.000030059739385
136 0.000354746926063
137 0.000223404234838
138 -0.000443246019112
139 0.0
140 -0.000037967946641
141 0.000010699803121
142 0.0
143 -0.000220909239218
144 -0.000014799475805
145 -0.000021021039009
146 0.000010714015293
147 0.000010307023716
148 0.0
149 0.0
150 -0.000012276448069
 Sym=      2.1
 Ene=     -11.3201
 Spin= Alpha
 Occup=    2.000000
1 0.99959954383977
2 0.002640437742912
3 0.001399182477938
4 0.001114690859928
5 0.0
6 0.001339228658848
7 -0.005370436824621
8 0.0
9 0.000268700074900
10 0.006903945792836
11 0.0
12 0.000038166705707
13 0.003208306804060
14 -0.000698078579150
15 0.000227329343420
16 0.000470749235730
17 0.0
18 0.0
19 0.000257632057509
20 0.000154519416512
21 -0.000577865247802
22 0.000423345831290
23 0.0
24 0.0
25 0.001501910186472
26 0.0
27 -0.000610516466929
28 0.000146146078592
29 0.0
30 0.000013573552163
31 -0.000183200175851
32 0.0
33 0.000805520240699
34 -0.000012875363975
35 0.0
36 0.009803775405321
37 -0.001215048881100
38 0.000158345060240
39 -0.001062815738461
40 0.0
41 -0.000333257839384
42 -0.000639122233950
43 0.0
44 0.001469030054382
45 0.002907837909402
46 0.0
47 0.000864260255532
48 0.001578515326363
49 0.000208624170236
50 0.000022463140574
51 -0.000231087310809
52 0.0
53 0.0
54 -0.000223034616548
55 -0.000200831648461
56 0.000532497705998
57 -0.000331666057537
58 0.0
59 0.0
60 -0.001677463703753
61 0.0
62 -0.000036301144113
63 0.000068442611824
64 0.0
65 -0.000073688611041
66 -0.000107575864186
67 0.0
68 0.000122391706579
69 0.000015750464628
70 0.0
71 -0.000127817575744
72 0.000237866603422
73 0.000127648399728
74 0.001771647908339
75 0.0
76 -0.000348531514847
77 0.000649713513472
78 0.0
79 -0.000002568535092
80 0.000128962917049
81 0.0
82 -0.000300586707097
83 0.000674549893724
84 -0.000020893030382
85 -0.000019146109237
86 0.000040039139619
87 0.0
88 0.0
89 -0.000048361318316
90 0.000020694567040
91 0.000050588645115
92 -0.000071283212154
93 0.0
94 0.0
95 0.000081413787027
96 0.0
97 -0.000097087071058
98 -0.000087258266201
99 0.0
100 -0.000036908886591
101 0.000088664173898
102 0.0
103 0.000167164860964
104 0.000028405074996
105 0.0
106 0.000201526804095
107 0.001175211260404
108 -0.000414067824322
109 0.0
110 -0.000280827251329
111 -0.000029645636303
112 0.0
113 0.000548362918117
114 0.000023875357986
115 -0.000012259976038
116 -0.000097993347152
117 0.000110253323190
118 0.0
119 0.0
120 -0.000063701062090
121 -0.000362102583635
122 -0.001554634863185
123 -0.000260440918731
124 0.0
125 -0.000023281474069
126 0.000052188109513
127 0.0
128 -0.000153393990790
129 0.000661616280734
130 -0.000019419903491
131 0.000024370218336
132 -0.000004950314845
133 0.0
134 0.0
135 0.000029444169302
136 -0.000170440767856
137 -0.001042441847771
138 -0.000383378385321
139 0.0
140 0.000046512199921
141 0.000007130591257
142 0.0
143 0.000467265071320
144 0.000433572143957
145 0.000017529061457
146 -0.000012105709409
147 -0.000005423352048
148 0.0
149 0.0
150 -0.000070265845306
 Sym=      3.1
 Ene=     -11.2250
 Spin= Alpha
 Occup=    2.000000
1 -0.011084794218859
2 -0.001269605507340
3 0.000287231369727
4 -0.001035949670265
5 0.0
6 0.000480301276227
7 0.000702433802065
8 0.0
9 -0.001653472567803
10 -0.002004213420298
11 0.0
12 -0.001112901882483
13 -0.001005315264071
14 0.000239837296068
15 0.000010593243148
16 -0.000250430539216
17 0.0
18 0.0
19 -0.000206021822999
20 -0.000033016417147
21 0.000732400312156
22 -0.000699383895009
23 0.0
24 0.0
25 -0.001218412623457
26 0.0
27 0.000180136814261
28 -0.000111423120792
29 0.0
30 0.000108448154383
31 0.000155164057659
32 0.0
33 -0.000350127051546
34 -0.000005674254245
35 0.0
36 0.99924731698889
37 0.002586416722285
38 0.002055232876556
39 0.001379419665833
40 0.0
41 0.000237832850073
42 0.000753181854499
43 0.0
44 -0.001220692199187
45 -0.002844354919104
46 0.0
47 -0.000238706115450
48 -0.001160409807025
49 -0.000830001402635
50 0.000308563097782
51 0.000521438304853
52 0.0
53 0.0
54 0.000226466745288
55 0.000101717080340
56 -0.000523074272459
57 0.000421357192119
58 0.0
59 0.0
60 0.000962475047856
61 0.0
62 0.000691367832897
63 -0.000077672306032
64 0.0
65 -0.000000205447564
66 0.000039482815143
67 0.0
68 -0.000927361835524
69 0.000064725518611
70 0.0
71 -0.000017050554199
72 -0.000071213382406
73 0.000028690315839
74 -0.000431753468786
75 0.0
76 0.000017051510917
77 0.000043951700684
78 0.0
79 -0.000040815739133
80 -0.000178468860106
81 0.0
82 -0.000090402728152
83 -0.000258741617389
84 -0.000001301240689
85 -0.000016503570628
86 0.000017804811317
87 0.0
88 0.0
89 0.000012725275571
90 0.000007072921597
91 0.000072245738738
92 -0.000079318660336
93 0.0
94 0.0
95 -0.000060390951078
96 0.0
97 0.000017011716229
98 0.000011423478446
99 0.0
100 -0.000000506939920
101 -0.000007852134229
102 0.0
103 -0.000022316672421
104 -0.000007474070377
105 0.0
106 -0.000019791694590
107 -0.001325437126578
108 -0.000442791422506
109 0.0
110 -0.000006167677884
111 -0.000006682385724
112 0.0
113 -0.000514747265339
114 -0.000376247810685
115 0.000009700138775
116 -0.000001550737081
117 -0.000008149401694
118 0.0
119 0.0
120 -0.000056895759674
121 0.000235358959515
122 0.001226944751279
123 -0.000419226290964
124 0.0
125 -0.000156803433476
126 0.000309748157464
127 0.0
128 0.000167776706341
129 -0.000486129599711
130 0.000048017815925
131 0.000104335604516
132 -0.000152353420441
133 0.0
134 0.0
135 0.000202603619410
136 0.000265971324565
137 0.000792275111155
138 -0.000640430575243
139 0.0
140 0.000364067059231
141 0.000024683558520
142 0.0
143 -0.000342639956443
144 -0.000103116775110
145 0.000052459231445
146 -0.000254740816412
147 0.000202281584967
148 0.0
149 0.0
150 -0.000034320948166
 Sym=      4.1
 Ene=      -1.6403
 Spin= Alpha
 Occup=    2.000000
1 -0.009017294520195
2 0.22407366333901
3 -0.004916601202996
4 -0.066790838359774
5 0.0
6 0.076017277219501
7 -0.13991991170090
8 0.0
9 -0.013559083213179
10 0.013813882071089
11 0.0
12 -0.032429345820647
13 0.045149722590047
14 -0.010256282046465
15 -0.001612744049672
16 0.011869026096137
17 0.0
18 0.0
19 -0.009968193827533
20 -0.011792433521207
21 0.001086568420717
22 0.010705865100489
23 0.0
24 0.0
25 -0.014055885522436
26 0.0
27 -0.005244115080713
28 -0.003400106109526
29 0.0
30 -0.001918598606608
31 0.004068344487228
32 0.0
33 0.008954317287991
34 0.000493376547740
35 0.0
36 -0.002155834351575
37 0.026211512868780
38 0.000570627351069
39 -0.012250010342276
40 0.0
41 -0.002987266516725