 Entering Gaussian System, Link 0=g16
 Input=c10h8.com
 Output=c10h8.log
 Initial command:
 /usr/local/g16/l1.exe "/scratch/ddi/Gau-3731655.inp" -scrdir="/scratch/ddi/"
 Entering Link 1 = /usr/local/g16/l1.exe PID=   3731657.
  
 Copyright (c) 1988,1990,1992,1993,1995,1998,2003,2009,2016,
            Gaussian, Inc.  All Rights Reserved.
  
 This is part of the Gaussian(R) 16 program.  It is based on
 the Gaussian(R) 09 system (copyright 2009, Gaussian, Inc.),
 the Gaussian(R) 03 system (copyright 2003, Gaussian, Inc.),
 the Gaussian(R) 98 system (copyright 1998, Gaussian, Inc.),
 the Gaussian(R) 94 system (copyright 1995, Gaussian, Inc.),
 the Gaussian 92(TM) system (copyright 1992, Gaussian, Inc.),
 the Gaussian 90(TM) system (copyright 1990, Gaussian, Inc.),
 the Gaussian 88(TM) system (copyright 1988, Gaussian, Inc.),
 the Gaussian 86(TM) system (copyright 1986, Carnegie Mellon
 University), and the Gaussian 82(TM) system (copyright 1983,
 Carnegie Mellon University). Gaussian is a federally registered
 trademark of Gaussian, Inc.
  
 This software contains proprietary and confidential information,
 including trade secrets, belonging to Gaussian, Inc.
  
 This software is provided under written license and may be
 used, copied, transmitted, or stored only in accord with that
 written license.
  
 The following legend is applicable only to US Government
 contracts under FAR:
  
                    RESTRICTED RIGHTS LEGEND
  
 Use, reproduction and disclosure by the US Government is
 subject to restrictions as set forth in subparagraphs (a)
 and (c) of the Commercial Computer Software - Restricted
 Rights clause in FAR 52.227-19.
  
 Gaussian, Inc.
 340 Quinnipiac St., Bldg. 40, Wallingford CT 06492
  
  
 ---------------------------------------------------------------
 Warning -- This program may not be used in any manner that
 competes with the business of Gaussian, Inc. or will provide
 assistance to any competitor of Gaussian, Inc.  The licensee
 of this program is prohibited from giving any competitor of
 Gaussian, Inc. access to this program.  By using this program,
 the user acknowledges that Gaussian, Inc. is engaged in the
 business of creating and licensing software in the field of
 computational chemistry and represents and warrants to the
 licensee that it is not a competitor of Gaussian, Inc. and that
 it will not use this program in any manner prohibited above.
 ---------------------------------------------------------------
  

 Cite this work as:
 Gaussian 16, Revision A.03,
 M. J. Frisch, G. W. Trucks, H. B. Schlegel, G. E. Scuseria, 
 M. A. Robb, J. R. Cheeseman, G. Scalmani, V. Barone, 
 G. A. Petersson, H. Nakatsuji, X. Li, M. Caricato, A. V. Marenich, 
 J. Bloino, B. G. Janesko, R. Gomperts, B. Mennucci, H. P. Hratchian, 
 J. V. Ortiz, A. F. Izmaylov, J. L. Sonnenberg, D. Williams-Young, 
 F. Ding, F. Lipparini, F. Egidi, J. Goings, B. Peng, A. Petrone, 
 T. Henderson, D. Ranasinghe, V. G. Zakrzewski, J. Gao, N. Rega, 
 G. Zheng, W. Liang, M. Hada, M. Ehara, K. Toyota, R. Fukuda, 
 J. Hasegawa, M. Ishida, T. Nakajima, Y. Honda, O. Kitao, H. Nakai, 
 T. Vreven, K. Throssell, J. A. Montgomery, Jr., J. E. Peralta, 
 F. Ogliaro, M. J. Bearpark, J. J. Heyd, E. N. Brothers, K. N. Kudin, 
 V. N. Staroverov, T. A. Keith, R. Kobayashi, J. Normand, 
 K. Raghavachari, A. P. Rendell, J. C. Burant, S. S. Iyengar, 
 J. Tomasi, M. Cossi, J. M. Millam, M. Klene, C. Adamo, R. Cammi, 
 J. W. Ochterski, R. L. Martin, K. Morokuma, O. Farkas, 
 J. B. Foresman, and D. J. Fox, Gaussian, Inc., Wallingford CT, 2016.
 
 ******************************************
 Gaussian 16:  ES64L-G16RevA.03 25-Dec-2016
                10-Oct-2022 
 ******************************************
 %nprocshared=12
 Will use up to   12 processors via shared memory.
 %chk=c10h8.chk
 ----------------------------------------------------
 #p opt=tight freq hf/6-311++g(d,p) geom=connectivity
 ----------------------------------------------------
 1/7=10,18=20,19=15,38=1,57=2/1,3;
 2/9=110,12=2,17=6,18=5,40=1/2;
 3/5=4,6=6,7=1111,11=9,25=1,30=1,71=1/1,2,3;
 4//1;
 5/5=2,38=5/2;
 6/7=2,8=2,9=2,10=2,28=1/1;
 7//1,2,3,16;
 1/7=10,18=20,19=15/3(2);
 2/9=110/2;
 99//99;
 2/9=110/2;
 3/5=4,6=6,7=1111,11=9,25=1,30=1,71=1/1,2,3;
 4/5=5,16=3,69=1/1;
 5/5=2,38=5/2;
 7//1,2,3,16;
 1/7=10,18=20,19=15/3(-5);
 2/9=110/2;
 6/7=2,8=2,9=2,10=2,19=2,28=1/1;
 99/9=1/99;
 Leave Link    1 at Mon Oct 10 13:47:49 2022, MaxMem=           0 cpu:               0.3 elap:               0.0
 (Enter /usr/local/g16/l101.exe)
 -------------------
 Title Card Required
 -------------------
 Symbolic Z-matrix:
 Charge =  0 Multiplicity = 1
 C
 C                    1    B1
 C                    2    B2       1    A1
 C                    3    B3       2    A2       1    D1       0
 C                    4    B4       3    A3       2    D2       0
 C                    5    B5       4    A4       3    D3       0
 H                    3    B6       2    A5       1    D4       0
 H                    1    B7       2    A6       3    D5       0
 H                    2    B8       1    A7       6    D6       0
 C                    3    B9       2    A8       1    D7       0
 C                    4    B10      3    A9       2    D8       0
 H                    5    B11      4    A10      3    D9       0
 H                    6    B12      5    A11      4    D10      0
 C                    11   B13      4    A12      3    D11      0
 C                    10   B14      3    A13      2    D12      0
 H                    11   B15      4    A14      3    D13      0
 H                    14   B16      11   A15      4    D14      0
 H                    15   B17      10   A16      3    D15      0
       Variables:
  B1                    1.3728                   
  B2                    1.42201                  
  B3                    1.41887                  
  B4                    1.42172                  
  B5                    1.37334                  
  B6                    2.1755                   
  B7                    1.1                      
  B8                    1.10033                  
  B9                    1.42203                  
  B10                   1.42208                  
  B11                   1.10021                  
  B12                   1.09995                  
  B13                   1.37286                  
  B14                   1.37294                  
  B15                   1.10035                  
  B16                   1.09996                  
  B17                   1.09995                  
  A1                  120.50995                  
  A2                  119.0959                   
  A3                  119.21033                  
  A4                  120.45591                  
  A5                   95.34833                  
  A6                  120.64768                  
  A7                  120.8832                   
  A8                  121.70036                  
  A9                  119.05963                  
  A10                 118.64414                  
  A11                 120.64565                  
  A12                 120.54905                  
  A13                 120.49677                  
  A14                 118.59132                  
  A15                 120.64917                  
  A16                 120.68504                  
  D1                    0.0171                   
  D2                   -0.00956                  
  D3                   -0.00404                  
  D4                 -179.99357                  
  D5                  179.99516                  
  D6                 -179.99714                  
  D7                 -179.98755                  
  D8                  179.99469                  
  D9                 -179.98783                  
  D10                -179.99903                  
  D11                   0.00145                  
  D12                -179.99953                  
  D13                 179.99838                  
  D14                 179.98387                  
  D15                 179.99873                  
 
 ITRead=  0  0  0  0  0  0  0  0  0  0  0  0  0  0  0  0  0  0
 MicOpt= -1 -1 -1 -1 -1 -1 -1 -1 -1 -1 -1 -1 -1 -1 -1 -1 -1 -1
 NAtoms=     18 NQM=       18 NQMF=       0 NMMI=      0 NMMIF=      0
                NMic=       0 NMicF=      0.
                    Isotopes and Nuclear Properties:
 (Nuclear quadrupole moments (NQMom) in fm**2, nuclear magnetic moments (NMagM)
  in nuclear magnetons)

  Atom         1           2           3           4           5           6           7           8           9          10
 IAtWgt=          12          12          12          12          12          12           1           1           1          12
 AtmWgt=  12.0000000  12.0000000  12.0000000  12.0000000  12.0000000  12.0000000   1.0078250   1.0078250   1.0078250  12.0000000
 NucSpn=           0           0           0           0           0           0           1           1           1           0
 AtZEff=  -0.0000000  -0.0000000  -0.0000000  -0.0000000  -0.0000000  -0.0000000  -0.0000000  -0.0000000  -0.0000000  -0.0000000
 NQMom=    0.0000000   0.0000000   0.0000000   0.0000000   0.0000000   0.0000000   0.0000000   0.0000000   0.0000000   0.0000000
 NMagM=    0.0000000   0.0000000   0.0000000   0.0000000   0.0000000   0.0000000   2.7928460   2.7928460   2.7928460   0.0000000
 AtZNuc=   6.0000000   6.0000000   6.0000000   6.0000000   6.0000000   6.0000000   1.0000000   1.0000000   1.0000000   6.0000000

  Atom        11          12          13          14          15          16          17          18
 IAtWgt=          12           1           1          12          12           1           1           1
 AtmWgt=  12.0000000   1.0078250   1.0078250  12.0000000  12.0000000   1.0078250   1.0078250   1.0078250
 NucSpn=           0           1           1           0           0           1           1           1
 AtZEff=  -0.0000000  -0.0000000  -0.0000000  -0.0000000  -0.0000000  -0.0000000  -0.0000000  -0.0000000
 NQMom=    0.0000000   0.0000000   0.0000000   0.0000000   0.0000000   0.0000000   0.0000000   0.0000000
 NMagM=    0.0000000   2.7928460   2.7928460   0.0000000   0.0000000   2.7928460   2.7928460   2.7928460
 AtZNuc=   6.0000000   1.0000000   1.0000000   6.0000000   6.0000000   1.0000000   1.0000000   1.0000000
 Leave Link  101 at Mon Oct 10 13:47:49 2022, MaxMem=   104857600 cpu:               0.7 elap:               0.1
 (Enter /usr/local/g16/l103.exe)

 GradGradGradGradGradGradGradGradGradGradGradGradGradGradGradGradGradGrad
 Berny optimization.
 Initialization pass.
                           ----------------------------
                           !    Initial Parameters    !
                           ! (Angstroms and Degrees)  !
 --------------------------                            --------------------------
 ! Name  Definition              Value          Derivative Info.                !
 --------------------------------------------------------------------------------
 ! R1    R(1,2)                  1.3728         estimate D2E/DX2                !
 ! R2    R(1,6)                  1.416          estimate D2E/DX2                !
 ! R3    R(1,8)                  1.1            estimate D2E/DX2                !
 ! R4    R(2,3)                  1.422          estimate D2E/DX2                !
 ! R5    R(2,9)                  1.1003         estimate D2E/DX2                !
 ! R6    R(3,4)                  1.4189         estimate D2E/DX2                !
 ! R7    R(3,10)                 1.422          estimate D2E/DX2                !
 ! R8    R(4,5)                  1.4217         estimate D2E/DX2                !
 ! R9    R(4,11)                 1.4221         estimate D2E/DX2                !
 ! R10   R(5,6)                  1.3733         estimate D2E/DX2                !
 ! R11   R(5,12)                 1.1002         estimate D2E/DX2                !
 ! R12   R(6,13)                 1.1            estimate D2E/DX2                !
 ! R13   R(7,10)                 1.1003         estimate D2E/DX2                !
 ! R14   R(10,15)                1.3729         estimate D2E/DX2                !
 ! R15   R(11,14)                1.3729         estimate D2E/DX2                !
 ! R16   R(11,16)                1.1003         estimate D2E/DX2                !
 ! R17   R(14,15)                1.4162         estimate D2E/DX2                !
 ! R18   R(14,17)                1.1            estimate D2E/DX2                !
 ! R19   R(15,18)                1.0999         estimate D2E/DX2                !
 ! A1    A(2,1,6)              120.3763         estimate D2E/DX2                !
 ! A2    A(2,1,8)              120.6477         estimate D2E/DX2                !
 ! A3    A(6,1,8)              118.976          estimate D2E/DX2                !
 ! A4    A(1,2,3)              120.5099         estimate D2E/DX2                !
 ! A5    A(1,2,9)              120.8832         estimate D2E/DX2                !
 ! A6    A(3,2,9)              118.6069         estimate D2E/DX2                !
 ! A7    A(2,3,4)              119.0959         estimate D2E/DX2                !
 ! A8    A(2,3,10)             121.7004         estimate D2E/DX2                !
 ! A9    A(4,3,10)             119.2037         estimate D2E/DX2                !
 ! A10   A(3,4,5)              119.2103         estimate D2E/DX2                !
 ! A11   A(3,4,11)             119.0596         estimate D2E/DX2                !
 ! A12   A(5,4,11)             121.73           estimate D2E/DX2                !
 ! A13   A(4,5,6)              120.4559         estimate D2E/DX2                !
 ! A14   A(4,5,12)             118.6441         estimate D2E/DX2                !
 ! A15   A(6,5,12)             120.8999         estimate D2E/DX2                !
 ! A16   A(1,6,5)              120.3516         estimate D2E/DX2                !
 ! A17   A(1,6,13)             119.0027         estimate D2E/DX2                !
 ! A18   A(5,6,13)             120.6457         estimate D2E/DX2                !
 ! A19   A(3,10,7)             118.6409         estimate D2E/DX2                !
 ! A20   A(3,10,15)            120.4968         estimate D2E/DX2                !
 ! A21   A(7,10,15)            120.8623         estimate D2E/DX2                !
 ! A22   A(4,11,14)            120.5491         estimate D2E/DX2                !
 ! A23   A(4,11,16)            118.5913         estimate D2E/DX2                !
 ! A24   A(14,11,16)           120.8596         estimate D2E/DX2                !
 ! A25   A(11,14,15)           120.3669         estimate D2E/DX2                !
 ! A26   A(11,14,17)           120.6492         estimate D2E/DX2                !
 ! A27   A(15,14,17)           118.9839         estimate D2E/DX2                !
 ! A28   A(10,15,14)           120.3239         estimate D2E/DX2                !
 ! A29   A(10,15,18)           120.685          estimate D2E/DX2                !
 ! A30   A(14,15,18)           118.991          estimate D2E/DX2                !
 ! D1    D(6,1,2,3)             -0.011          estimate D2E/DX2                !
 ! D2    D(6,1,2,9)           -179.9971         estimate D2E/DX2                !
 ! D3    D(8,1,2,3)            179.9952         estimate D2E/DX2                !
 ! D4    D(8,1,2,9)              0.009          estimate D2E/DX2                !
 ! D5    D(2,1,6,5)             -0.0029         estimate D2E/DX2                !
 ! D6    D(2,1,6,13)          -179.9936         estimate D2E/DX2                !
 ! D7    D(8,1,6,5)            179.991          estimate D2E/DX2                !
 ! D8    D(8,1,6,13)             0.0003         estimate D2E/DX2                !
 ! D9    D(1,2,3,4)              0.0171         estimate D2E/DX2                !
 ! D10   D(1,2,3,10)          -179.9875         estimate D2E/DX2                !
 ! D11   D(9,2,3,4)           -179.9964         estimate D2E/DX2                !
 ! D12   D(9,2,3,10)            -0.0011         estimate D2E/DX2                !
 ! D13   D(2,3,4,5)             -0.0096         estimate D2E/DX2                !
 ! D14   D(2,3,4,11)           179.9947         estimate D2E/DX2                !
 ! D15   D(10,3,4,5)           179.995          estimate D2E/DX2                !
 ! D16   D(10,3,4,11)           -0.0008         estimate D2E/DX2                !
 ! D17   D(2,3,10,7)            -0.0135         estimate D2E/DX2                !
 ! D18   D(2,3,10,15)         -179.9995         estimate D2E/DX2                !
 ! D19   D(4,3,10,7)           179.9818         estimate D2E/DX2                !
 ! D20   D(4,3,10,15)           -0.0042         estimate D2E/DX2                !
 ! D21   D(3,4,5,6)             -0.004          estimate D2E/DX2                !
 ! D22   D(3,4,5,12)          -179.9878         estimate D2E/DX2                !
 ! D23   D(11,4,5,6)           179.9916         estimate D2E/DX2                !
 ! D24   D(11,4,5,12)            0.0078         estimate D2E/DX2                !
 ! D25   D(3,4,11,14)            0.0014         estimate D2E/DX2                !
 ! D26   D(3,4,11,16)          179.9984         estimate D2E/DX2                !
 ! D27   D(5,4,11,14)         -179.9942         estimate D2E/DX2                !
 ! D28   D(5,4,11,16)            0.0027         estimate D2E/DX2                !
 ! D29   D(4,5,6,1)              0.0104         estimate D2E/DX2                !
 ! D30   D(4,5,6,13)          -179.999          estimate D2E/DX2                !
 ! D31   D(12,5,6,1)           179.9938         estimate D2E/DX2                !
 ! D32   D(12,5,6,13)           -0.0156         estimate D2E/DX2                !
 ! D33   D(3,10,15,14)           0.0084         estimate D2E/DX2                !
 ! D34   D(3,10,15,18)         179.9987         estimate D2E/DX2                !
 ! D35   D(7,10,15,14)        -179.9773         estimate D2E/DX2                !
 ! D36   D(7,10,15,18)           0.013          estimate D2E/DX2                !
 ! D37   D(4,11,14,15)           0.0027         estimate D2E/DX2                !
 ! D38   D(4,11,14,17)         179.9839         estimate D2E/DX2                !
 ! D39   D(16,11,14,15)       -179.9941         estimate D2E/DX2                !
 ! D40   D(16,11,14,17)         -0.013          estimate D2E/DX2                !
 ! D41   D(11,14,15,10)         -0.0078         estimate D2E/DX2                !
 ! D42   D(11,14,15,18)       -179.9982         estimate D2E/DX2                !
 ! D43   D(17,14,15,10)       -179.9892         estimate D2E/DX2                !
 ! D44   D(17,14,15,18)          0.0203         estimate D2E/DX2                !
 --------------------------------------------------------------------------------
 Trust Radius=3.00D-01 FncErr=1.00D-07 GrdErr=1.00D-07 EigMax=2.50D+02 EigMin=1.00D-04
 Number of steps in this run=    103 maximum allowed number of steps=    108.
 GradGradGradGradGradGradGradGradGradGradGradGradGradGradGradGradGradGrad

 Leave Link  103 at Mon Oct 10 13:47:49 2022, MaxMem=   104857600 cpu:               0.1 elap:               0.0
 (Enter /usr/local/g16/l202.exe)
                          Input orientation:                          
 ---------------------------------------------------------------------
 Center     Atomic      Atomic             Coordinates (Angstroms)
 Number     Number       Type             X           Y           Z
 ---------------------------------------------------------------------
      1          6           0        0.000000    0.000000    0.000000
      2          6           0        0.000000    0.000000    1.372801
      3          6           0        1.225121    0.000000    2.094739
      4          6           0        2.448987    0.000370    1.376869
      5          6           0        2.419614    0.000524   -0.044547
      6          6           0        1.221639    0.000234   -0.716052
      7          1           0        0.300156   -0.000243    4.063812
      8          1           0       -0.946346   -0.000080   -0.560731
      9          1           0       -0.944322   -0.000228    1.937590
     10          6           0        1.254664   -0.000263    3.516466
     11          6           0        3.673713    0.000485    2.099619
     12          1           0        3.374070    0.000606   -0.591788
     13          1           0        1.195272    0.000336   -1.815689
     14          6           0        3.673781    0.000212    3.472480
     15          6           0        2.451889   -0.000247    4.188492
     16          1           0        4.618254    0.000745    1.535163
     17          1           0        4.620112    0.000034    4.033172
     18          1           0        2.478354   -0.000429    5.288120
 ---------------------------------------------------------------------
                    Distance matrix (angstroms):
                    1          2          3          4          5
     1  C    0.000000
     2  C    1.372801   0.000000
     3  C    2.426696   1.422011   0.000000
     4  C    2.809503   2.448990   1.418868   0.000000
     5  C    2.420024   2.804177   2.450175   1.421719   0.000000
     6  C    1.416027   2.419857   2.810793   2.426253   1.373340
     7  H    4.074882   2.707699   2.175502   3.440514   4.622847
     8  H    1.099995   2.152700   3.430275   3.909294   3.405310
     9  H    2.155458   1.100332   2.175127   3.439325   3.904476
    10  C    3.733593   2.483844   1.422034   2.450364   3.746722
    11  C    4.231379   3.744921   2.448597   1.422083   2.483991
    12  H    3.425575   3.904351   3.440263   2.175176   1.100209
    13  H    2.173799   3.405164   3.910542   3.429902   2.153127
    14  C    5.055174   4.231468   2.809645   2.427284   3.733954
    15  C    4.853373   3.733614   2.426677   2.811625   4.233162
    16  H    4.866723   4.621107   3.438965   2.175035   2.707305
    17  H    6.132855   5.331323   3.909410   3.430704   4.633571
    18  H    5.840073   4.633785   3.430492   3.911361   5.332991
                    6          7          8          9         10
     6  C    0.000000
     7  H    4.867877   0.000000
     8  H    2.173542   4.789589   0.000000
     9  H    3.425376   2.463645   2.498322   0.000000
    10  C    4.232647   1.100306   4.633355   2.707100   0.000000
    11  C    3.733721   3.903709   5.331267   4.620877   2.803436
    12  H    2.156015   5.578849   4.320528   5.004624   4.622730
    13  H    1.099953   5.947249   2.482226   4.320297   5.332486
    14  C    4.853535   3.425058   6.132892   4.866494   2.419517
    15  C    5.056488   2.155342   5.839788   4.074409   1.372941
    16  H    4.074919   5.004002   5.946221   5.577114   3.903755
    17  H    5.839927   4.320065   7.217299   5.945956   3.404883
    18  H    6.134282   2.498695   6.777730   4.789652   2.153178
                   11         12         13         14         15
    11  C    0.000000
    12  H    2.708036   0.000000
    13  H    4.633822   2.499019   0.000000
    14  C    1.372861   4.075304   5.840183   0.000000
    15  C    2.419968   4.868418   6.134271   1.416225   0.000000
    16  H    1.100349   2.464125   4.790096   2.155279   3.425389
    17  H    2.152742   4.789872   6.777810   1.099963   2.173779
    18  H    3.405205   5.947741   7.218754   2.173843   1.099946
                   16         17         18
    16  H    0.000000
    17  H    2.498010   0.000000
    18  H    4.320169   2.482342   0.000000
 Stoichiometry    C10H8
 Framework group  C1[X(C10H8)]
 Deg. of freedom    48
 Full point group                 C1      NOp   1
 Largest Abelian subgroup         C1      NOp   1
 Largest concise Abelian subgroup C1      NOp   1
                         Standard orientation:                         
 ---------------------------------------------------------------------
 Center     Atomic      Atomic             Coordinates (Angstroms)
 Number     Number       Type             X           Y           Z
 ---------------------------------------------------------------------
      1          6           0        2.426104   -0.708815    0.000060
      2          6           0        1.241200   -1.402057   -0.000132
      3          6           0       -0.000592   -0.709186   -0.000027
      4          6           0        0.000990    0.709681   -0.000089
      5          6           0        1.242689    1.402120   -0.000049
      6          6           0        2.427242    0.707212    0.000133
      7          1           0       -1.233064   -2.501900   -0.000215
      8          1           0        3.387976   -1.242474    0.000059
      9          1           0        1.230581   -2.502338   -0.000143
     10          6           0       -1.242645   -1.401635    0.000042
     11          6           0       -1.241303    1.401800   -0.000099
     12          1           0        1.233044    2.502286    0.000106
     13          1           0        3.389685    1.239752    0.000180
     14          6           0       -2.426293    0.708587   -0.000018
     15          6           0       -2.427269   -0.707638    0.000134
     16          1           0       -1.231082    2.502102   -0.000121
     17          1           0       -3.388124    1.242252    0.000241
     18          1           0       -3.389754   -1.240089    0.000166
 ---------------------------------------------------------------------
 Rotational constants (GHZ):           3.1209900           1.2352643           0.8849914
 Leave Link  202 at Mon Oct 10 13:47:49 2022, MaxMem=   104857600 cpu:               0.1 elap:               0.0
 (Enter /usr/local/g16/l301.exe)
 Standard basis: 6-311++G(d,p) (5D, 7F)
 Ernie: Thresh=  0.10000D-02 Tol=  0.10000D-05 Strict=F.
 There are   286 symmetry adapted cartesian basis functions of A   symmetry.
 There are   276 symmetry adapted basis functions of A   symmetry.
   276 basis functions,   432 primitive gaussians,   286 cartesian basis functions
    34 alpha electrons       34 beta electrons
       nuclear repulsion energy       457.5564693334 Hartrees.
 IExCor=    0 DFT=F Ex=HF Corr=None ExCW=0 ScaHFX=  1.000000
 ScaDFX=  1.000000  1.000000  1.000000  1.000000 ScalE2=  1.000000  1.000000
 IRadAn=      5 IRanWt=     -1 IRanGd=            0 ICorTp=0 IEmpDi=  4
 NAtoms=   18 NActive=   18 NUniq=   18 SFac= 1.00D+00 NAtFMM=   60 NAOKFM=F Big=F
 Integral buffers will be    131072 words long.
 Raffenetti 1 integral format.
 Two-electron integral symmetry is turned on.
 Leave Link  301 at Mon Oct 10 13:47:49 2022, MaxMem=   104857600 cpu:               0.4 elap:               0.1
 (Enter /usr/local/g16/l302.exe)
 NPDir=0 NMtPBC=     1 NCelOv=     1 NCel=       1 NClECP=     1 NCelD=      1
         NCelK=      1 NCelE2=     1 NClLst=     1 CellRange=     0.0.
 One-electron integrals computed using PRISM.
 One-electron integral symmetry used in STVInt
 NBasis=   276 RedAO= T EigKep=  1.52D-06  NBF=   276
 NBsUse=   274 1.00D-06 EigRej=  6.89D-07 NBFU=   274
 Leave Link  302 at Mon Oct 10 13:47:49 2022, MaxMem=   104857600 cpu:               1.5 elap:               0.2
 (Enter /usr/local/g16/l303.exe)
 DipDrv:  MaxL=1.
 Leave Link  303 at Mon Oct 10 13:47:49 2022, MaxMem=   104857600 cpu:               0.3 elap:               0.1
 (Enter /usr/local/g16/l401.exe)
 ExpMin= 3.60D-02 ExpMax= 4.56D+03 ExpMxC= 6.82D+02 IAcc=3 IRadAn=         5 AccDes= 0.00D+00
 Harris functional with IExCor=  205 and IRadAn=       5 diagonalized for initial guess.
 HarFok:  IExCor=  205 AccDes= 0.00D+00 IRadAn=         5 IDoV= 1 UseB2=F ITyADJ=14
 ICtDFT=  3500011 ScaDFX=  1.000000  1.000000  1.000000  1.000000
 FoFCou: FMM=F IPFlag=           0 FMFlag=      100000 FMFlg1=           0
         NFxFlg=           0 DoJE=T BraDBF=F KetDBF=T FulRan=T
         wScrn=  0.000000 ICntrl=       500 IOpCl=  0 I1Cent=   200000004 NGrid=           0
         NMat0=    1 NMatS0=      1 NMatT0=    0 NMatD0=    1 NMtDS0=    0 NMtDT0=    0
 Petite list used in FoFCou.
 Harris En= -384.017574517682    
 JPrj=0 DoOrth=F DoCkMO=F.
 Leave Link  401 at Mon Oct 10 13:47:50 2022, MaxMem=   104857600 cpu:               4.9 elap:               0.4
 (Enter /usr/local/g16/l502.exe)
 Integral symmetry usage will be decided dynamically.
 Closed shell SCF:
 Using DIIS extrapolation, IDIIS=  1040.
 NGot=   104857600 LenX=   104687790 LenY=   104605553
 Requested convergence on RMS density matrix=1.00D-08 within 128 cycles.
 Requested convergence on MAX density matrix=1.00D-06.
 Requested convergence on             energy=1.00D-06.
 No special actions if energy rises.
 Fock matrices will be formed incrementally for  20 cycles.

 Cycle   1  Pass 0  IDiag  1:
 FoFJK:  IHMeth= 1 ICntrl=       0 DoSepK=F KAlg= 0 I1Cent=           0 FoldK=F
 IRaf= 950000000 NMat=       1 IRICut=       1 DoRegI=T DoRafI=F ISym2E= 0 IDoP0=0 IntGTp=1.
 FoFCou: FMM=F IPFlag=           0 FMFlag=      100000 FMFlg1=           0
         NFxFlg=           0 DoJE=F BraDBF=F KetDBF=F FulRan=T
         wScrn=  0.000000 ICntrl=         0 IOpCl=  0 I1Cent=           0 NGrid=           0
         NMat0=    1 NMatS0=      1 NMatT0=    0 NMatD0=    1 NMtDS0=    0 NMtDT0=    0
 Symmetry not used in FoFCou.
 E= -383.000235412282    
 DIIS: error= 7.47D-02 at cycle   1 NSaved=   1.
 NSaved= 1 IEnMin= 1 EnMin= -383.000235412282     IErMin= 1 ErrMin= 7.47D-02
 ErrMax= 7.47D-02  0.00D+00 EMaxC= 1.00D-01 BMatC= 7.87D-01 BMatP= 7.87D-01
 IDIUse=3 WtCom= 2.53D-01 WtEn= 7.47D-01
 Coeff-Com:  0.100D+01
 Coeff-En:   0.100D+01
 Coeff:      0.100D+01
 Gap=     0.381 Goal=   None    Shift=    0.000
 GapD=    0.381 DampG=1.000 DampE=0.500 DampFc=0.5000 IDamp=-1.
 Damping current iteration by 5.00D-01
 RMSDP=2.52D-02 MaxDP=1.70D+00              OVMax= 1.58D-01

 Cycle   2  Pass 0  IDiag  1:
 RMSU=  1.25D-02    CP:  1.02D+00
 E= -383.227069359308     Delta-E=       -0.226833947026 Rises=F Damp=T
 DIIS: error= 3.11D-02 at cycle   2 NSaved=   2.
 NSaved= 2 IEnMin= 2 EnMin= -383.227069359308     IErMin= 2 ErrMin= 3.11D-02
 ErrMax= 3.11D-02  0.00D+00 EMaxC= 1.00D-01 BMatC= 1.78D-01 BMatP= 7.87D-01
 IDIUse=3 WtCom= 6.89D-01 WtEn= 3.11D-01
 Coeff-Com: -0.756D+00 0.176D+01
 Coeff-En:   0.000D+00 0.100D+01
 Coeff:     -0.521D+00 0.152D+01
 Gap=     0.338 Goal=   None    Shift=    0.000
 RMSDP=1.05D-02 MaxDP=6.71D-01 DE=-2.27D-01 OVMax= 4.81D-02

 Cycle   3  Pass 0  IDiag  1:
 RMSU=  4.85D-03    CP:  9.02D-01  1.47D+00
 E= -383.432007889066     Delta-E=       -0.204938529758 Rises=F Damp=F
 DIIS: error= 3.99D-03 at cycle   3 NSaved=   3.
 NSaved= 3 IEnMin= 3 EnMin= -383.432007889066     IErMin= 3 ErrMin= 3.99D-03
 ErrMax= 3.99D-03  0.00D+00 EMaxC= 1.00D-01 BMatC= 1.87D-03 BMatP= 1.78D-01
 IDIUse=3 WtCom= 9.60D-01 WtEn= 3.99D-02
 Coeff-Com: -0.998D-01 0.165D+00 0.935D+00
 Coeff-En:   0.000D+00 0.000D+00 0.100D+01
 Coeff:     -0.958D-01 0.158D+00 0.937D+00
 Gap=     0.329 Goal=   None    Shift=    0.000
 RMSDP=4.08D-03 MaxDP=3.34D-01 DE=-2.05D-01 OVMax= 1.39D-02

 Cycle   4  Pass 0  IDiag  1:
 RMSU=  1.80D-03    CP:  8.48D-01  1.38D+00  7.41D-01
 E= -383.433797454908     Delta-E=       -0.001789565842 Rises=F Damp=F
 DIIS: error= 2.02D-03 at cycle   4 NSaved=   4.
 NSaved= 4 IEnMin= 4 EnMin= -383.433797454908     IErMin= 4 ErrMin= 2.02D-03
 ErrMax= 2.02D-03  0.00D+00 EMaxC= 1.00D-01 BMatC= 1.74D-04 BMatP= 1.87D-03
 IDIUse=3 WtCom= 9.80D-01 WtEn= 2.02D-02
 Coeff-Com: -0.100D-01 0.776D-02 0.210D+00 0.792D+00
 Coeff-En:   0.000D+00 0.000D+00 0.000D+00 0.100D+01
 Coeff:     -0.983D-02 0.760D-02 0.206D+00 0.796D+00
 Gap=     0.329 Goal=   None    Shift=    0.000
 RMSDP=2.88D-04 MaxDP=9.40D-03 DE=-1.79D-03 OVMax= 6.58D-03

 Cycle   5  Pass 0  IDiag  1:
 RMSU=  1.90D-04    CP:  8.47D-01  1.39D+00  7.72D-01  9.72D-01
 E= -383.433998154547     Delta-E=       -0.000200699639 Rises=F Damp=F
 DIIS: error= 8.87D-04 at cycle   5 NSaved=   5.
 NSaved= 5 IEnMin= 5 EnMin= -383.433998154547     IErMin= 5 ErrMin= 8.87D-04
 ErrMax= 8.87D-04  0.00D+00 EMaxC= 1.00D-01 BMatC= 2.20D-05 BMatP= 1.74D-04
 IDIUse=3 WtCom= 9.91D-01 WtEn= 8.87D-03
 Coeff-Com:  0.823D-02-0.150D-01-0.648D-01 0.144D+00 0.927D+00
 Coeff-En:   0.000D+00 0.000D+00 0.000D+00 0.000D+00 0.100D+01
 Coeff:      0.816D-02-0.149D-01-0.642D-01 0.143D+00 0.928D+00
 Gap=     0.329 Goal=   None    Shift=    0.000
 RMSDP=2.25D-04 MaxDP=1.13D-02 DE=-2.01D-04 OVMax= 3.22D-03

 Cycle   6  Pass 0  IDiag  1:
 RMSU=  8.01D-05    CP:  8.44D-01  1.39D+00  7.68D-01  1.03D+00  8.32D-01
 E= -383.434035479725     Delta-E=       -0.000037325178 Rises=F Damp=F
 DIIS: error= 3.16D-04 at cycle   6 NSaved=   6.
 NSaved= 6 IEnMin= 6 EnMin= -383.434035479725     IErMin= 6 ErrMin= 3.16D-04
 ErrMax= 3.16D-04  0.00D+00 EMaxC= 1.00D-01 BMatC= 2.10D-06 BMatP= 2.20D-05
 IDIUse=3 WtCom= 9.97D-01 WtEn= 3.16D-03
 Coeff-Com:  0.259D-02-0.385D-02-0.318D-01-0.482D-01 0.161D+00 0.920D+00
 Coeff-En:   0.000D+00 0.000D+00 0.000D+00 0.000D+00 0.000D+00 0.100D+01
 Coeff:      0.259D-02-0.383D-02-0.317D-01-0.481D-01 0.161D+00 0.920D+00
 Gap=     0.330 Goal=   None    Shift=    0.000
 RMSDP=8.01D-05 MaxDP=4.47D-03 DE=-3.73D-05 OVMax= 1.38D-03

 Cycle   7  Pass 0  IDiag  1:
 RMSU=  2.22D-05    CP:  8.43D-01  1.39D+00  7.66D-01  1.06D+00  8.75D-01
                    CP:  1.24D+00
 E= -383.434041157680     Delta-E=       -0.000005677955 Rises=F Damp=F
 DIIS: error= 1.38D-04 at cycle   7 NSaved=   7.
 NSaved= 7 IEnMin= 7 EnMin= -383.434041157680     IErMin= 7 ErrMin= 1.38D-04
 ErrMax= 1.38D-04  0.00D+00 EMaxC= 1.00D-01 BMatC= 3.30D-07 BMatP= 2.10D-06
 IDIUse=3 WtCom= 9.99D-01 WtEn= 1.38D-03
 Coeff-Com: -0.451D-03 0.973D-03 0.170D-02-0.236D-01-0.789D-01 0.151D+00
 Coeff-Com:  0.949D+00
 Coeff-En:   0.000D+00 0.000D+00 0.000D+00 0.000D+00 0.000D+00 0.000D+00
 Coeff-En:   0.100D+01
 Coeff:     -0.450D-03 0.971D-03 0.169D-02-0.236D-01-0.788D-01 0.151D+00
 Coeff:      0.949D+00
 Gap=     0.330 Goal=   None    Shift=    0.000
 RMSDP=2.09D-05 MaxDP=1.67D-03 DE=-5.68D-06 OVMax= 6.28D-04

 Cycle   8  Pass 0  IDiag  1:
 RMSU=  6.14D-06    CP:  8.43D-01  1.39D+00  7.66D-01  1.06D+00  8.58D-01
                    CP:  1.42D+00  1.23D+00
 E= -383.434042391588     Delta-E=       -0.000001233908 Rises=F Damp=F
 DIIS: error= 5.53D-05 at cycle   8 NSaved=   8.
 NSaved= 8 IEnMin= 8 EnMin= -383.434042391588     IErMin= 8 ErrMin= 5.53D-05
 ErrMax= 5.53D-05  0.00D+00 EMaxC= 1.00D-01 BMatC= 4.97D-08 BMatP= 3.30D-07
 IDIUse=1 WtCom= 1.00D+00 WtEn= 0.00D+00
 Coeff-Com: -0.473D-03 0.669D-03 0.589D-02 0.176D-01-0.106D-01-0.239D+00
 Coeff-Com: -0.275D+00 0.150D+01
 Coeff:     -0.473D-03 0.669D-03 0.589D-02 0.176D-01-0.106D-01-0.239D+00
 Coeff:     -0.275D+00 0.150D+01
 Gap=     0.330 Goal=   None    Shift=    0.000
 RMSDP=1.99D-05 MaxDP=2.21D-03 DE=-1.23D-06 OVMax= 4.86D-04

 Cycle   9  Pass 0  IDiag  1:
 RMSU=  2.98D-06    CP:  8.43D-01  1.39D+00  7.67D-01  1.06D+00  8.29D-01
                    CP:  1.53D+00  1.59D+00  1.49D+00
 E= -383.434042710690     Delta-E=       -0.000000319102 Rises=F Damp=F
 DIIS: error= 5.32D-06 at cycle   9 NSaved=   9.
 NSaved= 9 IEnMin= 9 EnMin= -383.434042710690     IErMin= 9 ErrMin= 5.32D-06
 ErrMax= 5.32D-06  0.00D+00 EMaxC= 1.00D-01 BMatC= 7.38D-10 BMatP= 4.97D-08
 IDIUse=1 WtCom= 1.00D+00 WtEn= 0.00D+00
 Coeff-Com:  0.583D-04-0.912D-04-0.804D-03-0.130D-02 0.444D-02 0.243D-01
 Coeff-Com: -0.467D-02-0.206D+00 0.118D+01
 Coeff:      0.583D-04-0.912D-04-0.804D-03-0.130D-02 0.444D-02 0.243D-01
 Coeff:     -0.467D-02-0.206D+00 0.118D+01
 Gap=     0.330 Goal=   None    Shift=    0.000
 RMSDP=2.05D-06 MaxDP=1.68D-04 DE=-3.19D-07 OVMax= 5.14D-05

 Initial convergence to 1.0D-05 achieved.  Increase integral accuracy.
 Cycle  10  Pass 1  IDiag  1:
 E= -383.434042714287     Delta-E=       -0.000000003598 Rises=F Damp=F
 DIIS: error= 2.28D-07 at cycle   1 NSaved=   1.
 NSaved= 1 IEnMin= 1 EnMin= -383.434042714287     IErMin= 1 ErrMin= 2.28D-07
 ErrMax= 2.28D-07  0.00D+00 EMaxC= 1.00D-01 BMatC= 1.23D-11 BMatP= 1.23D-11
 IDIUse=1 WtCom= 1.00D+00 WtEn= 0.00D+00
 Coeff-Com:  0.100D+01
 Coeff:      0.100D+01
 Gap=     0.330 Goal=   None    Shift=    0.000
 RMSDP=2.05D-06 MaxDP=1.68D-04 DE=-3.60D-09 OVMax= 1.14D-06

 Cycle  11  Pass 1  IDiag  1:
 RMSU=  2.16D-07    CP:  1.00D+00
 E= -383.434042714313     Delta-E=       -0.000000000025 Rises=F Damp=F
 DIIS: error= 8.58D-08 at cycle   2 NSaved=   2.
 NSaved= 2 IEnMin= 2 EnMin= -383.434042714313     IErMin= 2 ErrMin= 8.58D-08
 ErrMax= 8.58D-08  0.00D+00 EMaxC= 1.00D-01 BMatC= 1.23D-12 BMatP= 1.23D-11
 IDIUse=1 WtCom= 1.00D+00 WtEn= 0.00D+00
 Coeff-Com: -0.277D+00 0.128D+01
 Coeff:     -0.277D+00 0.128D+01
 Gap=     0.330 Goal=   None    Shift=    0.000
 RMSDP=9.67D-08 MaxDP=5.63D-06 DE=-2.51D-11 OVMax= 4.98D-07

 Cycle  12  Pass 1  IDiag  1:
 RMSU=  2.37D-08    CP:  1.00D+00  1.33D+00
 E= -383.434042714317     Delta-E=       -0.000000000005 Rises=F Damp=F
 DIIS: error= 3.00D-08 at cycle   3 NSaved=   3.
 NSaved= 3 IEnMin= 3 EnMin= -383.434042714317     IErMin= 3 ErrMin= 3.00D-08
 ErrMax= 3.00D-08  0.00D+00 EMaxC= 1.00D-01 BMatC= 7.94D-14 BMatP= 1.23D-12
 IDIUse=1 WtCom= 1.00D+00 WtEn= 0.00D+00
 Coeff-Com: -0.801D-01 0.115D+00 0.965D+00
 Coeff:     -0.801D-01 0.115D+00 0.965D+00
 Gap=     0.330 Goal=   None    Shift=    0.000
 RMSDP=1.51D-08 MaxDP=9.30D-07 DE=-4.89D-12 OVMax= 1.51D-07

 Cycle  13  Pass 1  IDiag  1:
 RMSU=  7.38D-09    CP:  1.00D+00  1.38D+00  1.02D+00
 E= -383.434042714315     Delta-E=        0.000000000002 Rises=F Damp=F
 DIIS: error= 1.55D-08 at cycle   4 NSaved=   4.
 NSaved= 4 IEnMin= 3 EnMin= -383.434042714317     IErMin= 4 ErrMin= 1.55D-08
 ErrMax= 1.55D-08  0.00D+00 EMaxC= 1.00D-01 BMatC= 1.16D-14 BMatP= 7.94D-14
 IDIUse=1 WtCom= 1.00D+00 WtEn= 0.00D+00
 Coeff-Com: -0.257D-02-0.450D-01 0.232D+00 0.815D+00
 Coeff:     -0.257D-02-0.450D-01 0.232D+00 0.815D+00
 Gap=     0.330 Goal=   None    Shift=    0.000
 RMSDP=2.52D-09 MaxDP=1.22D-07 DE= 2.05D-12 OVMax= 8.22D-08

 SCF Done:  E(RHF) =  -383.434042714     A.U. after   13 cycles
            NFock= 13  Conv=0.25D-08     -V/T= 2.0016
 KE= 3.828105431021D+02 PE=-1.807185696045D+03 EE= 5.833846408954D+02
 Leave Link  502 at Mon Oct 10 13:48:00 2022, MaxMem=   104857600 cpu:             117.7 elap:               9.8
 (Enter /usr/local/g16/l601.exe)
 Copying SCF densities to generalized density rwf, IOpCl= 0 IROHF=0.

 **********************************************************************

            Population analysis using the SCF density.

 **********************************************************************

 Orbital symmetries:
       Occupied  (A) (A) (A) (A) (A) (A) (A) (A) (A) (A) (A) (A)
                 (A) (A) (A) (A) (A) (A) (A) (A) (A) (A) (A) (A)
                 (A) (A) (A) (A) (A) (A) (A) (A) (A) (A)
       Virtual   (A) (A) (A) (A) (A) (A) (A) (A) (A) (A) (A) (A)
                 (A) (A) (A) (A) (A) (A) (A) (A) (A) (A) (A) (A)
                 (A) (A) (A) (A) (A) (A) (A) (A) (A) (A) (A) (A)
                 (A) (A) (A) (A) (A) (A) (A) (A) (A) (A) (A) (A)
                 (A) (A) (A) (A) (A) (A) (A) (A) (A) (A) (A) (A)
                 (A) (A) (A) (A) (A) (A) (A) (A) (A) (A) (A) (A)
                 (A) (A) (A) (A) (A) (A) (A) (A) (A) (A) (A) (A)
                 (A) (A) (A) (A) (A) (A) (A) (A) (A) (A) (A) (A)
                 (A) (A) (A) (A) (A) (A) (A) (A) (A) (A) (A) (A)
                 (A) (A) (A) (A) (A) (A) (A) (A) (A) (A) (A) (A)
                 (A) (A) (A) (A) (A) (A) (A) (A) (A) (A) (A) (A)
                 (A) (A) (A) (A) (A) (A) (A) (A) (A) (A) (A) (A)
                 (A) (A) (A) (A) (A) (A) (A) (A) (A) (A) (A) (A)
                 (A) (A) (A) (A) (A) (A) (A) (A) (A) (A) (A) (A)
                 (A) (A) (A) (A) (A) (A) (A) (A) (A) (A) (A) (A)
                 (A) (A) (A) (A) (A) (A) (A) (A) (A) (A) (A) (A)
                 (A) (A) (A) (A) (A) (A) (A) (A) (A) (A) (A) (A)
                 (A) (A) (A) (A) (A) (A) (A) (A) (A) (A) (A) (A)
                 (A) (A) (A) (A) (A) (A) (A) (A) (A) (A) (A) (A)
                 (A) (A) (A) (A) (A) (A) (A) (A) (A) (A) (A) (A)
 The electronic state is 1-A.
 Alpha  occ. eigenvalues --  -11.24841 -11.24736 -11.24309 -11.24302 -11.24289
 Alpha  occ. eigenvalues --  -11.24277 -11.24165 -11.24160 -11.24079 -11.24077
 Alpha  occ. eigenvalues --   -1.18024  -1.11217  -1.05213  -1.01113  -0.98262
 Alpha  occ. eigenvalues --   -0.85467  -0.83654  -0.81351  -0.70388  -0.69805
 Alpha  occ. eigenvalues --   -0.67937  -0.62236  -0.61312  -0.58685  -0.58263
 Alpha  occ. eigenvalues --   -0.56423  -0.53515  -0.52346  -0.48922  -0.47966
 Alpha  occ. eigenvalues --   -0.44976  -0.38650  -0.32197  -0.29137
 Alpha virt. eigenvalues --    0.03844   0.04502   0.04529   0.05957   0.06049
 Alpha virt. eigenvalues --    0.07692   0.08063   0.08446   0.10209   0.10485
 Alpha virt. eigenvalues --    0.10854   0.12986   0.13372   0.13806   0.14670
 Alpha virt. eigenvalues --    0.15389   0.16230   0.16624   0.16639   0.17375
 Alpha virt. eigenvalues --    0.17916   0.18404   0.18786   0.18882   0.19109
 Alpha virt. eigenvalues --    0.19360   0.20473   0.21089   0.22446   0.22825
 Alpha virt. eigenvalues --    0.22889   0.22912   0.23090   0.23173   0.24002
 Alpha virt. eigenvalues --    0.25217   0.25847   0.26369   0.27926   0.29456
 Alpha virt. eigenvalues --    0.30461   0.30888   0.30961   0.32025   0.32848
 Alpha virt. eigenvalues --    0.33182   0.34578   0.35370   0.36442   0.36795
 Alpha virt. eigenvalues --    0.37374   0.38028   0.38566   0.40705   0.41174
 Alpha virt. eigenvalues --    0.42123   0.42798   0.42988   0.44358   0.46466
 Alpha virt. eigenvalues --    0.47637   0.50526   0.51801   0.52575   0.53935
 Alpha virt. eigenvalues --    0.56534   0.63266   0.63352   0.69535   0.71089
 Alpha virt. eigenvalues --    0.71379   0.72357   0.72905   0.73999   0.74185
 Alpha virt. eigenvalues --    0.74508   0.75690   0.77538   0.77692   0.78044
 Alpha virt. eigenvalues --    0.78300   0.78310   0.80133   0.82302   0.83342
 Alpha virt. eigenvalues --    0.83954   0.85295   0.85510   0.89830   0.93307
 Alpha virt. eigenvalues --    0.93422   0.93497   0.93802   0.96305   0.97467
 Alpha virt. eigenvalues --    0.98007   0.98979   1.00672   1.02046   1.03342
 Alpha virt. eigenvalues --    1.04096   1.07150   1.08674   1.08678   1.12480
 Alpha virt. eigenvalues --    1.12639   1.12769   1.14388   1.15418   1.15894
 Alpha virt. eigenvalues --    1.15969   1.18956   1.20382   1.20953   1.26903
 Alpha virt. eigenvalues --    1.26994   1.27882   1.29174   1.30346   1.32566
 Alpha virt. eigenvalues --    1.34396   1.35177   1.39414   1.39806   1.41140
 Alpha virt. eigenvalues --    1.54683   1.55723   1.58711   1.71473   1.75611
 Alpha virt. eigenvalues --    1.75646   1.75861   1.76343   1.78408   1.79057
 Alpha virt. eigenvalues --    1.82268   1.83250   1.85913   1.86569   1.87044
 Alpha virt. eigenvalues --    1.89744   1.91723   1.93203   1.94953   2.00096
 Alpha virt. eigenvalues --    2.00863   2.01458   2.02579   2.03648   2.04088
 Alpha virt. eigenvalues --    2.10490   2.11968   2.18357   2.18419   2.19994
 Alpha virt. eigenvalues --    2.20526   2.21113   2.22383   2.23465   2.25552
 Alpha virt. eigenvalues --    2.25711   2.26257   2.26388   2.30064   2.33287
 Alpha virt. eigenvalues --    2.38956   2.42349   2.43871   2.43895   2.49072
 Alpha virt. eigenvalues --    2.51001   2.54699   2.56948   2.69612   2.74003
 Alpha virt. eigenvalues --    2.74228   2.75522   2.80410   2.80648   2.83767
 Alpha virt. eigenvalues --    2.85180   2.88634   2.97600   2.98888   3.01837
 Alpha virt. eigenvalues --    3.02239   3.03098   3.04056   3.04499   3.04830
 Alpha virt. eigenvalues --    3.05980   3.06799   3.07464   3.08834   3.09169
 Alpha virt. eigenvalues --    3.12009   3.18030   3.18536   3.21179   3.22134
 Alpha virt. eigenvalues --    3.23611   3.29980   3.30247   3.30299   3.32273
 Alpha virt. eigenvalues --    3.36502   3.46546   3.49902   3.63452   3.65280
 Alpha virt. eigenvalues --    3.75559   3.76793   3.81328   3.81730   3.87189
 Alpha virt. eigenvalues --    3.91970   3.93121   3.97761   4.04629   4.04961
 Alpha virt. eigenvalues --    4.15313   4.42574   4.42661   4.43188   4.46385
 Alpha virt. eigenvalues --    4.58729   4.60931   4.78864   5.25224   5.27887
 Alpha virt. eigenvalues --   24.66442  24.94879  25.07391  25.10296  25.12887
 Alpha virt. eigenvalues --   25.18590  25.28070  25.28618  25.34750  25.34991
          Condensed to atoms (all electrons):
               1          2          3          4          5          6
     1  C    6.329270   0.083512  -0.101248   0.454210  -0.925817   0.277680
     2  C    0.083512   9.133073  -2.558488  -2.462004   2.553462  -0.922870
     3  C   -0.101248  -2.558488  17.601190  -2.333894  -2.480311   0.462043
     4  C    0.454210  -2.462004  -2.333894  17.610004  -2.534917  -0.106191
     5  C   -0.925817   2.553462  -2.480311  -2.534917   9.128431   0.088801
     6  C    0.277680  -0.922870   0.462043  -0.106191   0.088801   6.320910
     7  H    0.032213   0.037031  -0.057800  -0.047573  -0.029338  -0.003929
     8  H    0.413232  -0.038163   0.034222  -0.002608  -0.019795  -0.051527
     9  H   -0.052617   0.436963  -0.057847  -0.047187   0.037382   0.011592
    10  C   -0.149154  -0.054220  -2.523568  -2.487994  -0.127301   0.219171
    11  C    0.220181  -0.121046  -2.463996  -2.554754  -0.055882  -0.152534
    12  H    0.011448   0.037326  -0.047387  -0.057966   0.437042  -0.052254
    13  H   -0.051309  -0.019906  -0.003083   0.034743  -0.037834   0.412692
    14  C    0.098927   0.220386   0.452450  -0.101626  -0.148934  -0.298655
    15  C   -0.299437  -0.151680  -0.109664   0.461997   0.221613   0.099312
    16  H   -0.003938  -0.029393  -0.047114  -0.057760   0.036698   0.032198
    17  H    0.001237  -0.006703  -0.002406   0.034039   0.005306   0.000867
    18  H    0.000903   0.005390   0.034595  -0.002966  -0.006765   0.001231
               7          8          9         10         11         12
     1  C    0.032213   0.413232  -0.052617  -0.149154   0.220181   0.011448
     2  C    0.037031  -0.038163   0.436963  -0.054220  -0.121046   0.037326
     3  C   -0.057800   0.034222  -0.057847  -2.523568  -2.463996  -0.047387
     4  C   -0.047573  -0.002608  -0.047187  -2.487994  -2.554754  -0.057966
     5  C   -0.029338  -0.019795   0.037382  -0.127301  -0.055882   0.437042
     6  C   -0.003929  -0.051527   0.011592   0.219171  -0.152534  -0.052254
     7  H    0.464440   0.000698   0.003025   0.437127   0.037308   0.000115
     8  H    0.000698   0.470343  -0.008054   0.005355  -0.006744   0.000898
     9  H    0.003025  -0.008054   0.464563   0.036814  -0.029381   0.000415
    10  C    0.437127   0.005355   0.036814   9.126298   2.553136  -0.029278
    11  C    0.037308  -0.006744  -0.029381   2.553136   9.134511   0.036924
    12  H    0.000115   0.000898   0.000415  -0.029278   0.036924   0.464375
    13  H   -0.000242  -0.005124   0.000905  -0.006797   0.005447  -0.008011
    14  C    0.011419   0.001230  -0.003940  -0.924942   0.084370   0.032145
    15  C   -0.052462   0.000884   0.032224   0.087408  -0.923856  -0.003912
    16  H    0.000414  -0.000244   0.000118   0.037322   0.436916   0.003018
    17  H    0.000895   0.000015  -0.000244  -0.019877  -0.038156   0.000698
    18  H   -0.008012  -0.000047   0.000699  -0.037774  -0.019933  -0.000242
              13         14         15         16         17         18
     1  C   -0.051309   0.098927  -0.299437  -0.003938   0.001237   0.000903
     2  C   -0.019906   0.220386  -0.151680  -0.029393  -0.006703   0.005390
     3  C   -0.003083   0.452450  -0.109664  -0.047114  -0.002406   0.034595
     4  C    0.034743  -0.101626   0.461997  -0.057760   0.034039  -0.002966
     5  C   -0.037834  -0.148934   0.221613   0.036698   0.005306  -0.006765
     6  C    0.412692  -0.298655   0.099312   0.032198   0.000867   0.001231
     7  H   -0.000242   0.011419  -0.052462   0.000414   0.000895  -0.008012
     8  H   -0.005124   0.001230   0.000884  -0.000244   0.000015  -0.000047
     9  H    0.000905  -0.003940   0.032224   0.000118  -0.000244   0.000699
    10  C   -0.006797  -0.924942   0.087408   0.037322  -0.019877  -0.037774
    11  C    0.005447   0.084370  -0.923856   0.436916  -0.038156  -0.019933
    12  H   -0.008011   0.032145  -0.003912   0.003018   0.000698  -0.000242
    13  H    0.470155   0.000921   0.001221   0.000700  -0.000047   0.000014
    14  C    0.000921   6.329578   0.276586  -0.052594   0.413271  -0.051337
    15  C    0.001221   0.276586   6.326187   0.011606  -0.051493   0.412756
    16  H    0.000700  -0.052594   0.011606   0.464653  -0.008061   0.000907
    17  H   -0.000047   0.413271  -0.051493  -0.008061   0.470341  -0.005111
    18  H    0.000014  -0.051337   0.412756   0.000907  -0.005111   0.470172
 Mulliken charges:
               1
     1  C   -0.339293
     2  C   -0.142670
     3  C    0.202305
     4  C    0.202446
     5  C   -0.141841
     6  C   -0.338537
     7  H    0.174670
     8  H    0.205430
     9  H    0.174573
    10  C   -0.141727
    11  C   -0.142511
    12  H    0.174646
    13  H    0.205555
    14  C   -0.339256
    15  C   -0.339291
    16  H    0.174555
    17  H    0.205429
    18  H    0.205518
 Sum of Mulliken charges =  -0.00000
 Mulliken charges with hydrogens summed into heavy atoms:
               1
     1  C   -0.133864
     2  C    0.031903
     3  C    0.202305
     4  C    0.202446
     5  C    0.032805
     6  C   -0.132982
    10  C    0.032943
    11  C    0.032043
    14  C   -0.133827
    15  C   -0.133772
 Electronic spatial extent (au):  <R**2>=           1293.5150
 Charge=             -0.0000 electrons
 Dipole moment (field-independent basis, Debye):
    X=              0.0002    Y=             -0.0004    Z=              0.0001  Tot=              0.0005
 Quadrupole moment (field-independent basis, Debye-Ang):
   XX=            -51.7849   YY=            -51.8426   ZZ=            -66.4643
   XY=              0.0086   XZ=             -0.0002   YZ=              0.0013
 Traceless Quadrupole moment (field-independent basis, Debye-Ang):
   XX=              4.9124   YY=              4.8546   ZZ=             -9.7670
   XY=              0.0086   XZ=             -0.0002   YZ=              0.0013
 Octapole moment (field-independent basis, Debye-Ang**2):
  XXX=             -0.0195  YYY=             -0.0010  ZZZ=              0.0001  XYY=              0.0085
  XXY=             -0.0051  XXZ=              0.0051  XZZ=              0.0003  YZZ=             -0.0015
  YYZ=             -0.0010  XYZ=             -0.0006
 Hexadecapole moment (field-independent basis, Debye-Ang**3):
 XXXX=          -1084.6808 YYYY=           -480.7938 ZZZZ=            -82.3829 XXXY=              0.0473
 XXXZ=             -0.0080 YYYX=              0.0556 YYYZ=              0.0092 ZZZX=             -0.0001
 ZZZY=              0.0019 XXYY=           -270.7765 XXZZ=           -249.8576 YYZZ=           -117.4099
 XXYZ=              0.0058 YYXZ=              0.0018 ZZXY=              0.0002
 N-N= 4.575564693334D+02 E-N=-1.807185696042D+03  KE= 3.828105431021D+02
 No NMR shielding tensors so no spin-rotation constants.
 Leave Link  601 at Mon Oct 10 13:48:00 2022, MaxMem=   104857600 cpu:               1.4 elap:               0.2
 (Enter /usr/local/g16/l701.exe)
 ... and contract with generalized density number  0.
 Compute integral first derivatives.
 Leave Link  701 at Mon Oct 10 13:48:00 2022, MaxMem=   104857600 cpu:               1.3 elap:               0.2
 (Enter /usr/local/g16/l702.exe)
 L702 exits ... SP integral derivatives will be done elsewhere.
 Leave Link  702 at Mon Oct 10 13:48:00 2022, MaxMem=   104857600 cpu:               0.1 elap:               0.0
 (Enter /usr/local/g16/l703.exe)
 Integral derivatives from FoFJK, PRISM(SPDF).
 Compute integral first derivatives, UseDBF=F ICtDFT=           0.
 Calling FoFJK, ICntrl=      2127 FMM=F ISym2X=0 I1Cent= 0 IOpClX= 0 NMat=1 NMatS=1 NMatT=0.
 FoFJK:  IHMeth= 1 ICntrl=    2127 DoSepK=F KAlg= 0 I1Cent=           0 FoldK=F
 IRaf=         0 NMat=       1 IRICut=       1 DoRegI=T DoRafI=F ISym2E= 0 IDoP0=0 IntGTp=1.
 FoFCou: FMM=F IPFlag=           0 FMFlag=      100000 FMFlg1=         800
         NFxFlg=           0 DoJE=F BraDBF=F KetDBF=F FulRan=T
         wScrn=  0.000000 ICntrl=      2127 IOpCl=  0 I1Cent=           0 NGrid=           0
         NMat0=    1 NMatS0=      1 NMatT0=    0 NMatD0=    1 NMtDS0=    0 NMtDT0=    0
 Symmetry not used in FoFCou.
 Leave Link  703 at Mon Oct 10 13:48:03 2022, MaxMem=   104857600 cpu:              35.9 elap:               3.0
 (Enter /usr/local/g16/l716.exe)
 Dipole        = 9.03667624D-05-1.70309602D-04 5.48171185D-05
 ***** Axes restored to original set *****
 -------------------------------------------------------------------
 Center     Atomic                   Forces (Hartrees/Bohr)
 Number     Number              X              Y              Z
 -------------------------------------------------------------------
      1        6          -0.012688226    0.000013595    0.003987819
      2        6          -0.010127124   -0.000029571   -0.004275241
      3        6           0.001983652    0.000019292   -0.001690509
      4        6          -0.002057355   -0.000004758    0.002006710
      5        6           0.000447807   -0.000026532   -0.011214707
      6        6           0.010216828    0.000021191   -0.008817373
      7        1           0.015359798   -0.000016017   -0.007549882
      8        1           0.014101361   -0.000001378    0.009895726
      9        1           0.014046779    0.000007195   -0.009793743
     10        6          -0.000851884    0.000020069    0.011137144
     11        6           0.010334212    0.000001093    0.004331175
     12        1          -0.015350372    0.000008806    0.007470292
     13        1           0.001706281   -0.000007031    0.017121038
     14        6           0.012559743   -0.000035761   -0.004129557
     15        6          -0.009788275    0.000015545    0.008757889
     16        1          -0.014046859   -0.000003304    0.009782293
     17        1          -0.014083441    0.000016955   -0.009896317
     18        1          -0.001762924    0.000000610   -0.017122756
 -------------------------------------------------------------------
 Cartesian Forces:  Max     0.017122756 RMS     0.008136006
 Leave Link  716 at Mon Oct 10 13:48:03 2022, MaxMem=   104857600 cpu:               0.2 elap:               0.0
 (Enter /usr/local/g16/l103.exe)

 GradGradGradGradGradGradGradGradGradGradGradGradGradGradGradGradGradGrad
 Berny optimization.
 FormGI is forming the generalized inverse of G from B-inverse, IUseBI=4.
 Internal  Forces:  Max     0.017176076 RMS     0.006075669
 Search for a local minimum.
 Step number   1 out of a maximum of  103
 All quantities printed in internal units (Hartrees-Bohrs-Radians)
 RMS Force = .60757D-02 SwitMx=.10000D-02 MixMth= 1
 Mixed Optimization -- RFO/linear search
 Second derivative matrix not updated -- first step.
 ITU=  0
     Eigenvalues ---    0.01806   0.01817   0.01818   0.01995   0.02012
     Eigenvalues ---    0.02032   0.02051   0.02129   0.02130   0.02159
     Eigenvalues ---    0.02159   0.02190   0.02222   0.02287   0.02305
     Eigenvalues ---    0.16000   0.16000   0.16000   0.16000   0.16000
     Eigenvalues ---    0.16000   0.16000   0.16000   0.22000   0.22000
     Eigenvalues ---    0.22333   0.22797   0.24282   0.24714   0.33644
     Eigenvalues ---    0.33645   0.33648   0.33659   0.33683   0.33686
     Eigenvalues ---    0.33687   0.33688   0.37465   0.39658   0.40110
     Eigenvalues ---    0.41032   0.42246   0.42558   0.42923   0.48396
     Eigenvalues ---    0.48613   0.49798   0.49828
 RFO step:  Lambda=-9.07829557D-03 EMin= 1.80597828D-02
 Linear search not attempted -- first point.
 Iteration  1 RMS(Cart)=  0.02330515 RMS(Int)=  0.00008690
 Iteration  2 RMS(Cart)=  0.00012547 RMS(Int)=  0.00000068
 Iteration  3 RMS(Cart)=  0.00000001 RMS(Int)=  0.00000068
 ITry= 1 IFail=0 DXMaxC= 7.54D-02 DCOld= 1.00D+10 DXMaxT= 3.00D-01 DXLimC= 3.00D+00 Rises=F
 Variable       Old X    -DE/DX   Delta X   Delta X   Delta X     New X
                                 (Linear)    (Quad)   (Total)
    R1        2.59422  -0.01498   0.00000  -0.02944  -0.02944   2.56478
    R2        2.67590  -0.00203   0.00000  -0.00530  -0.00530   2.67060
    R3        2.07869  -0.01718   0.00000  -0.04966  -0.04966   2.02903
    R4        2.68721  -0.00358   0.00000  -0.00795  -0.00794   2.67927
    R5        2.07933  -0.01708   0.00000  -0.04944  -0.04944   2.02989
    R6        2.68127  -0.00813   0.00000  -0.01731  -0.01731   2.66396
    R7        2.68725  -0.00363   0.00000  -0.00810  -0.00810   2.67915
    R8        2.68666  -0.00344   0.00000  -0.00766  -0.00766   2.67900
    R9        2.68735  -0.00354   0.00000  -0.00788  -0.00788   2.67947
   R10        2.59524  -0.01542   0.00000  -0.03041  -0.03041   2.56483
   R11        2.07909  -0.01703   0.00000  -0.04927  -0.04927   2.02982
   R12        2.07861  -0.01716   0.00000  -0.04959  -0.04959   2.02902
   R13        2.07928  -0.01708   0.00000  -0.04943  -0.04943   2.02985
   R14        2.59448  -0.01513   0.00000  -0.02978  -0.02978   2.56470
   R15        2.59433  -0.01515   0.00000  -0.02979  -0.02979   2.56454
   R16        2.07936  -0.01708   0.00000  -0.04942  -0.04942   2.02994
   R17        2.67628  -0.00206   0.00000  -0.00537  -0.00537   2.67091
   R18        2.07863  -0.01716   0.00000  -0.04961  -0.04961   2.02902
   R19        2.07860  -0.01716   0.00000  -0.04960  -0.04960   2.02900
    A1        2.10096   0.00013   0.00000  -0.00111  -0.00111   2.09986
    A2        2.10570  -0.00144   0.00000  -0.00759  -0.00759   2.09811
    A3        2.07652   0.00131   0.00000   0.00870   0.00870   2.08522
    A4        2.10330   0.00074   0.00000   0.00356   0.00356   2.10686
    A5        2.10981  -0.00161   0.00000  -0.00913  -0.00913   2.10068
    A6        2.07008   0.00087   0.00000   0.00557   0.00557   2.07565
    A7        2.07862  -0.00085   0.00000  -0.00222  -0.00222   2.07640
    A8        2.12407   0.00211   0.00000   0.00614   0.00614   2.13021
    A9        2.08050  -0.00126   0.00000  -0.00392  -0.00392   2.07658
   A10        2.08061  -0.00129   0.00000  -0.00404  -0.00404   2.07658
   A11        2.07798  -0.00070   0.00000  -0.00167  -0.00167   2.07631
   A12        2.12459   0.00199   0.00000   0.00571   0.00571   2.13030
   A13        2.10235   0.00101   0.00000   0.00450   0.00450   2.10685
   A14        2.07073   0.00070   0.00000   0.00485   0.00485   2.07558
   A15        2.11010  -0.00170   0.00000  -0.00935  -0.00935   2.10075
   A16        2.10053   0.00025   0.00000  -0.00070  -0.00070   2.09983
   A17        2.07699   0.00122   0.00000   0.00831   0.00831   2.08530
   A18        2.10566  -0.00147   0.00000  -0.00761  -0.00761   2.09805
   A19        2.07068   0.00071   0.00000   0.00479   0.00479   2.07547
   A20        2.10307   0.00084   0.00000   0.00384   0.00384   2.10690
   A21        2.10944  -0.00155   0.00000  -0.00863  -0.00863   2.10082
   A22        2.10398   0.00062   0.00000   0.00299   0.00299   2.10697
   A23        2.06981   0.00093   0.00000   0.00583   0.00583   2.07564
   A24        2.10940  -0.00155   0.00000  -0.00882  -0.00882   2.10058
   A25        2.10080   0.00016   0.00000  -0.00098  -0.00098   2.09982
   A26        2.10573  -0.00147   0.00000  -0.00772  -0.00772   2.09801
   A27        2.07666   0.00131   0.00000   0.00870   0.00870   2.08536
   A28        2.10005   0.00034   0.00000  -0.00026  -0.00026   2.09979
   A29        2.10635  -0.00157   0.00000  -0.00817  -0.00817   2.09818
   A30        2.07679   0.00123   0.00000   0.00843   0.00843   2.08522
    D1       -0.00019   0.00001   0.00000   0.00020   0.00020   0.00001
    D2       -3.14154  -0.00000   0.00000  -0.00005  -0.00005   3.14159
    D3        3.14151   0.00000   0.00000   0.00011   0.00011  -3.14157
    D4        0.00016  -0.00000   0.00000  -0.00015  -0.00015   0.00001
    D5       -0.00005   0.00000   0.00000   0.00004   0.00004  -0.00001
    D6       -3.14148  -0.00000   0.00000  -0.00011  -0.00011  -3.14159
    D7        3.14144   0.00000   0.00000   0.00013   0.00013   3.14157
    D8        0.00001  -0.00000   0.00000  -0.00002  -0.00002  -0.00001
    D9        0.00030  -0.00001   0.00000  -0.00030  -0.00030   0.00000
   D10       -3.14138  -0.00001   0.00000  -0.00020  -0.00020  -3.14158
   D11       -3.14153  -0.00000   0.00000  -0.00005  -0.00005  -3.14158
   D12       -0.00002   0.00000   0.00000   0.00004   0.00005   0.00003
   D13       -0.00017   0.00000   0.00000   0.00016   0.00016  -0.00001
   D14        3.14150   0.00000   0.00000   0.00012   0.00012  -3.14157
   D15        3.14150   0.00000   0.00000   0.00006   0.00006   3.14157
   D16       -0.00001   0.00000   0.00000   0.00003   0.00003   0.00001
   D17       -0.00024   0.00000   0.00000   0.00015   0.00015  -0.00009
   D18       -3.14158  -0.00000   0.00000  -0.00005  -0.00005   3.14155
   D19        3.14128   0.00001   0.00000   0.00025   0.00025   3.14152
   D20       -0.00007   0.00000   0.00000   0.00004   0.00004  -0.00003
   D21       -0.00007   0.00000   0.00000   0.00008   0.00008   0.00001
   D22       -3.14138  -0.00000   0.00000  -0.00017  -0.00017  -3.14155
   D23        3.14145   0.00000   0.00000   0.00012   0.00012   3.14157
   D24        0.00014  -0.00000   0.00000  -0.00013  -0.00013   0.00000
   D25        0.00003  -0.00000   0.00000  -0.00000  -0.00000   0.00002
   D26        3.14156   0.00000   0.00000   0.00005   0.00005  -3.14157
   D27       -3.14149  -0.00000   0.00000  -0.00004  -0.00004  -3.14153
   D28        0.00005   0.00000   0.00000   0.00002   0.00002   0.00006
   D29        0.00018  -0.00001   0.00000  -0.00019  -0.00019  -0.00000
   D30       -3.14158  -0.00000   0.00000  -0.00003  -0.00003   3.14158
   D31        3.14149   0.00000   0.00000   0.00008   0.00007   3.14156
   D32       -0.00027   0.00001   0.00000   0.00023   0.00023  -0.00004
   D33        0.00015  -0.00000   0.00000  -0.00014  -0.00014   0.00001
   D34        3.14157   0.00000   0.00000   0.00003   0.00003  -3.14158
   D35       -3.14120  -0.00001   0.00000  -0.00034  -0.00034  -3.14154
   D36        0.00023  -0.00001   0.00000  -0.00018  -0.00018   0.00005
   D37        0.00005  -0.00000   0.00000  -0.00009  -0.00009  -0.00004
   D38        3.14131   0.00001   0.00000   0.00022   0.00021   3.14153
   D39       -3.14149  -0.00000   0.00000  -0.00015  -0.00015   3.14155
   D40       -0.00023   0.00001   0.00000   0.00016   0.00016  -0.00007
   D41       -0.00014   0.00001   0.00000   0.00016   0.00016   0.00003
   D42       -3.14156   0.00000   0.00000  -0.00000  -0.00000  -3.14156
   D43       -3.14140  -0.00000   0.00000  -0.00014  -0.00014  -3.14154
   D44        0.00035  -0.00001   0.00000  -0.00030  -0.00030   0.00005
         Item               Value     Threshold  Converged?
 Maximum Force            0.017176     0.000015     NO 
 RMS     Force            0.006076     0.000010     NO 
 Maximum Displacement     0.075387     0.000060     NO 
 RMS     Displacement     0.023295     0.000040     NO 
 Predicted change in Energy=-4.652231D-03
 Lowest energy point so far.  Saving SCF results.
 GradGradGradGradGradGradGradGradGradGradGradGradGradGradGradGradGradGrad

 Leave Link  103 at Mon Oct 10 13:48:03 2022, MaxMem=   104857600 cpu:               0.5 elap:               0.1
 (Enter /usr/local/g16/l202.exe)
                          Input orientation:                          
 ---------------------------------------------------------------------
 Center     Atomic      Atomic             Coordinates (Angstroms)
 Number     Number       Type             X           Y           Z
 ---------------------------------------------------------------------
      1          6           0        0.008370    0.000049    0.011782
      2          6           0        0.009296   -0.000119    1.369002
      3          6           0        1.228718   -0.000005    2.092320
      4          6           0        2.445155    0.000287    1.379890
      5          6           0        2.411084    0.000444   -0.037366
      6          6           0        1.227892    0.000330   -0.702332
      7          1           0        0.335302   -0.000348    4.051473
      8          1           0       -0.919867   -0.000018   -0.527892
      9          1           0       -0.917198   -0.000330    1.912557
     10          6           0        1.262789   -0.000192    3.509655
     11          6           0        3.664601    0.000370    2.103372
     12          1           0        3.338494    0.000626   -0.579283
     13          1           0        1.211533    0.000462   -1.775917
     14          6           0        3.665558    0.000143    3.460469
     15          6           0        2.445887   -0.000127    4.174654
     16          1           0        4.591161    0.000616    1.559880
     17          1           0        4.593856    0.000146    4.000025
     18          1           0        2.462326   -0.000278    5.248227
 ---------------------------------------------------------------------
                    Distance matrix (angstroms):
                    1          2          3          4          5
     1  C    0.000000
     2  C    1.357221   0.000000
     3  C    2.412029   1.417807   0.000000
     4  C    2.794573   2.435883   1.409708   0.000000
     5  C    2.403216   2.783245   2.435888   1.417665   0.000000
     6  C    1.413220   2.403207   2.794652   2.411924   1.357248
     7  H    4.052899   2.702208   2.153247   3.404238   4.585572
     8  H    1.073719   2.112239   3.388499   3.868204   3.366875
     9  H    2.114148   1.074171   2.153432   3.404284   3.857416
    10  C    3.716004   2.480653   1.417745   2.435958   3.728262
    11  C    4.212217   3.728344   2.435908   1.417912   2.480738
    12  H    3.382171   3.857379   3.404205   2.153233   1.074134
    13  H    2.154870   3.366881   3.868274   3.388353   2.112222
    14  C    5.026775   4.212183   2.794642   2.412094   3.715987
    15  C    4.824002   3.716000   2.411974   2.794765   4.212164
    16  H    4.837208   4.585839   3.404338   2.153542   2.702579
    17  H    6.077233   5.285874   3.868268   3.388514   4.589664
    18  H    5.782928   4.589743   3.388442   3.868375   5.285841
                    6          7          8          9         10
     6  C    0.000000
     7  H    4.836877   0.000000
     8  H    2.154831   4.748266   0.000000
     9  H    3.382167   2.478653   2.440450   0.000000
    10  C    4.212132   1.074150   4.589747   2.702419   0.000000
    11  C    3.716117   3.857373   5.285914   4.585771   2.783223
    12  H    2.114186   5.519335   4.258671   4.931550   4.585626
    13  H    1.073709   5.892898   2.469905   4.258677   5.285820
    14  C    4.824016   3.382290   6.077265   4.837116   2.403272
    15  C    5.026779   2.114176   5.782927   4.053077   1.357182
    16  H    4.053293   4.931569   5.893236   5.519638   3.857419
    17  H    5.782895   4.258864   7.134646   5.893152   3.366967
    18  H    6.077251   2.440584   6.693488   4.748461   2.112231
                   11         12         13         14         15
    11  C    0.000000
    12  H    2.702403   0.000000
    13  H    4.589817   2.440471   0.000000
    14  C    1.357098   4.052970   5.782904   0.000000
    15  C    2.403222   4.837010   6.077247   1.413385   0.000000
    16  H    1.074196   2.478950   4.748624   2.113996   3.382195
    17  H    2.112063   4.748262   6.693400   1.073712   2.155056
    18  H    3.366835   5.893008   7.134639   2.154958   1.073698
                   16         17         18
    16  H    0.000000
    17  H    2.440146   0.000000
    18  H    4.258619   2.470107   0.000000
 Stoichiometry    C10H8
 Framework group  C1[X(C10H8)]
 Deg. of freedom    48
 Full point group                 C1      NOp   1
 RotChk:  IX=3 Diff= 5.48D-04
 Largest Abelian subgroup         C1      NOp   1
 Largest concise Abelian subgroup C1      NOp   1
                         Standard orientation:                         
 ---------------------------------------------------------------------
 Center     Atomic      Atomic             Coordinates (Angstroms)
 Number     Number       Type             X           Y           Z
 ---------------------------------------------------------------------
      1          6           0        2.412016   -0.706580    0.000016
      2          6           0        1.240358   -1.391609    0.000005
      3          6           0       -0.000012   -0.704835   -0.000018
      4          6           0        0.000080    0.704873   -0.000031
      5          6           0        1.240293    1.391636   -0.000005
      6          6           0        2.412003    0.706640    0.000015
      7          1           0       -1.239172   -2.465788   -0.000069
      8          1           0        3.346774   -1.234880    0.000012
      9          1           0        1.239481   -2.465780    0.000003
     10          6           0       -1.240296   -1.391638   -0.000012
     11          6           0       -1.240445    1.391585   -0.000022
     12          1           0        1.239295    2.465770    0.000025
     13          1           0        3.346701    1.235025    0.000022
     14          6           0       -2.412013    0.706645    0.000026
     15          6           0       -2.411986   -0.706740    0.000016
     16          1           0       -1.239656    2.465781   -0.000055
     17          1           0       -3.346699    1.235057    0.000094
     18          1           0       -3.346714   -1.235049    0.000028
 ---------------------------------------------------------------------
 Rotational constants (GHZ):           3.1683475           1.2495639           0.8961367
 Leave Link  202 at Mon Oct 10 13:48:03 2022, MaxMem=   104857600 cpu:               0.0 elap:               0.0
 (Enter /usr/local/g16/l301.exe)
 Standard basis: 6-311++G(d,p) (5D, 7F)
 Ernie: Thresh=  0.10000D-02 Tol=  0.10000D-05 Strict=F.
 There are   286 symmetry adapted cartesian basis functions of A   symmetry.
 There are   276 symmetry adapted basis functions of A   symmetry.
   276 basis functions,   432 primitive gaussians,   286 cartesian basis functions
    34 alpha electrons       34 beta electrons
       nuclear repulsion energy       461.0248493690 Hartrees.
 IExCor=    0 DFT=F Ex=HF Corr=None ExCW=0 ScaHFX=  1.000000
 ScaDFX=  1.000000  1.000000  1.000000  1.000000 ScalE2=  1.000000  1.000000
 IRadAn=      5 IRanWt=     -1 IRanGd=            0 ICorTp=0 IEmpDi=  4
 NAtoms=   18 NActive=   18 NUniq=   18 SFac= 1.00D+00 NAtFMM=   60 NAOKFM=F Big=F
 Integral buffers will be    131072 words long.
 Raffenetti 1 integral format.
 Two-electron integral symmetry is turned on.
 Leave Link  301 at Mon Oct 10 13:48:03 2022, MaxMem=   104857600 cpu:               0.3 elap:               0.0
 (Enter /usr/local/g16/l302.exe)
 NPDir=0 NMtPBC=     1 NCelOv=     1 NCel=       1 NClECP=     1 NCelD=      1
         NCelK=      1 NCelE2=     1 NClLst=     1 CellRange=     0.0.
 One-electron integrals computed using PRISM.
 One-electron integral symmetry used in STVInt
 NBasis=   276 RedAO= T EigKep=  1.47D-06  NBF=   276
 NBsUse=   274 1.00D-06 EigRej=  6.62D-07 NBFU=   274
 Leave Link  302 at Mon Oct 10 13:48:03 2022, MaxMem=   104857600 cpu:               1.4 elap:               0.1
 (Enter /usr/local/g16/l303.exe)
 DipDrv:  MaxL=1.
 Leave Link  303 at Mon Oct 10 13:48:03 2022, MaxMem=   104857600 cpu:               0.2 elap:               0.0
 (Enter /usr/local/g16/l401.exe)
 Initial guess from the checkpoint file:  "c10h8.chk"
 B after Tr=    -0.000000   -0.000000    0.000000
         Rot=    1.000000   -0.000000   -0.000000   -0.000178 Ang=  -0.02 deg.
 Guess basis will be translated and rotated to current coordinates.
 JPrj=2 DoOrth=T DoCkMO=T.
 Generating alternative initial guess.
 ExpMin= 3.60D-02 ExpMax= 4.56D+03 ExpMxC= 6.82D+02 IAcc=3 IRadAn=         5 AccDes= 0.00D+00
 Harris functional with IExCor=  205 and IRadAn=       5 diagonalized for initial guess.
 HarFok:  IExCor=  205 AccDes= 0.00D+00 IRadAn=         5 IDoV= 1 UseB2=F ITyADJ=14
 ICtDFT=  3500011 ScaDFX=  1.000000  1.000000  1.000000  1.000000
 FoFCou: FMM=F IPFlag=           0 FMFlag=      100000 FMFlg1=           0
         NFxFlg=           0 DoJE=T BraDBF=F KetDBF=T FulRan=T
         wScrn=  0.000000 ICntrl=       500 IOpCl=  0 I1Cent=   200000004 NGrid=           0
         NMat0=    1 NMatS0=      1 NMatT0=    0 NMatD0=    1 NMtDS0=    0 NMtDT0=    0
 Petite list used in FoFCou.
 Harris En= -384.039647474579    
 Leave Link  401 at Mon Oct 10 13:48:04 2022, MaxMem=   104857600 cpu:               5.3 elap:               0.5
 (Enter /usr/local/g16/l502.exe)
 Integral symmetry usage will be decided dynamically.
 Closed shell SCF:
 Using DIIS extrapolation, IDIIS=  1040.
 NGot=   104857600 LenX=   104687790 LenY=   104605553
 Requested convergence on RMS density matrix=1.00D-08 within 128 cycles.
 Requested convergence on MAX density matrix=1.00D-06.
 Requested convergence on             energy=1.00D-06.
 No special actions if energy rises.
 Fock matrices will be formed incrementally for  20 cycles.

 Cycle   1  Pass 0  IDiag  1:
 FoFJK:  IHMeth= 1 ICntrl=       0 DoSepK=F KAlg= 0 I1Cent=           0 FoldK=F
 IRaf= 950000000 NMat=       1 IRICut=       1 DoRegI=T DoRafI=F ISym2E= 0 IDoP0=0 IntGTp=1.
 FoFCou: FMM=F IPFlag=           0 FMFlag=      100000 FMFlg1=           0
         NFxFlg=           0 DoJE=F BraDBF=F KetDBF=F FulRan=T
         wScrn=  0.000000 ICntrl=         0 IOpCl=  0 I1Cent=           0 NGrid=           0
         NMat0=    1 NMatS0=      1 NMatT0=    0 NMatD0=    1 NMtDS0=    0 NMtDT0=    0
 Symmetry not used in FoFCou.
 E= -383.436777831640    
 DIIS: error= 2.83D-03 at cycle   1 NSaved=   1.
 NSaved= 1 IEnMin= 1 EnMin= -383.436777831640     IErMin= 1 ErrMin= 2.83D-03
 ErrMax= 2.83D-03  0.00D+00 EMaxC= 1.00D-01 BMatC= 1.55D-03 BMatP= 1.55D-03
 IDIUse=3 WtCom= 9.72D-01 WtEn= 2.83D-02
 Coeff-Com:  0.100D+01
 Coeff-En:   0.100D+01
 Coeff:      0.100D+01
 Gap=     0.554 Goal=   None    Shift=    0.000
 GapD=    0.554 DampG=2.000 DampE=1.000 DampFc=2.0000 IDamp=-1.
 RMSDP=1.06D-03 MaxDP=3.95D-02              OVMax= 6.22D-03

 Cycle   2  Pass 0  IDiag  1:
 RMSU=  8.38D-04    CP:  9.88D-01
 E= -383.438190144319     Delta-E=       -0.001412312679 Rises=F Damp=F
 DIIS: error= 6.15D-04 at cycle   2 NSaved=   2.
 NSaved= 2 IEnMin= 2 EnMin= -383.438190144319     IErMin= 2 ErrMin= 6.15D-04
 ErrMax= 6.15D-04  0.00D+00 EMaxC= 1.00D-01 BMatC= 5.91D-05 BMatP= 1.55D-03
 IDIUse=3 WtCom= 9.94D-01 WtEn= 6.15D-03
 Coeff-Com: -0.213D-01 0.102D+01
 Coeff-En:   0.000D+00 0.100D+01
 Coeff:     -0.212D-01 0.102D+01
 Gap=     0.332 Goal=   None    Shift=    0.000
 RMSDP=8.21D-04 MaxDP=8.77D-02 DE=-1.41D-03 OVMax= 2.81D-03

 Cycle   3  Pass 0  IDiag  1:
 RMSU=  4.12D-04    CP:  1.00D+00  1.20D+00
 E= -383.438261059057     Delta-E=       -0.000070914739 Rises=F Damp=F
 DIIS: error= 3.48D-04 at cycle   3 NSaved=   3.
 NSaved= 3 IEnMin= 3 EnMin= -383.438261059057     IErMin= 3 ErrMin= 3.48D-04
 ErrMax= 3.48D-04  0.00D+00 EMaxC= 1.00D-01 BMatC= 6.84D-06 BMatP= 5.91D-05
 IDIUse=3 WtCom= 9.97D-01 WtEn= 3.48D-03
 Coeff-Com: -0.345D-01 0.172D+00 0.862D+00
 Coeff-En:   0.000D+00 0.000D+00 0.100D+01
 Coeff:     -0.343D-01 0.172D+00 0.863D+00
 Gap=     0.333 Goal=   None    Shift=    0.000
 RMSDP=7.14D-05 MaxDP=5.38D-03 DE=-7.09D-05 OVMax= 1.26D-03

 Cycle   4  Pass 0  IDiag  1:
 RMSU=  6.78D-05    CP:  1.00D+00  1.23D+00  9.92D-01
 E= -383.438271488885     Delta-E=       -0.000010429828 Rises=F Damp=F
 DIIS: error= 1.61D-04 at cycle   4 NSaved=   4.
 NSaved= 4 IEnMin= 4 EnMin= -383.438271488885     IErMin= 4 ErrMin= 1.61D-04
 ErrMax= 1.61D-04  0.00D+00 EMaxC= 1.00D-01 BMatC= 5.75D-07 BMatP= 6.84D-06
 IDIUse=3 WtCom= 9.98D-01 WtEn= 1.61D-03
 Coeff-Com:  0.170D-02-0.602D-01-0.253D-02 0.106D+01
 Coeff-En:   0.000D+00 0.000D+00 0.000D+00 0.100D+01
 Coeff:      0.170D-02-0.601D-01-0.252D-02 0.106D+01
 Gap=     0.333 Goal=   None    Shift=    0.000
 RMSDP=2.51D-05 MaxDP=1.15D-03 DE=-1.04D-05 OVMax= 7.80D-04

 Cycle   5  Pass 0  IDiag  1:
 RMSU=  2.36D-05    CP:  1.00D+00  1.24D+00  9.96D-01  1.04D+00
 E= -383.438273295845     Delta-E=       -0.000001806960 Rises=F Damp=F
 DIIS: error= 9.10D-05 at cycle   5 NSaved=   5.
 NSaved= 5 IEnMin= 5 EnMin= -383.438273295845     IErMin= 5 ErrMin= 9.10D-05
 ErrMax= 9.10D-05  0.00D+00 EMaxC= 1.00D-01 BMatC= 1.22D-07 BMatP= 5.75D-07
 IDIUse=1 WtCom= 1.00D+00 WtEn= 0.00D+00
 Coeff-Com:  0.358D-02-0.293D-01-0.848D-01 0.207D+00 0.904D+00
 Coeff:      0.358D-02-0.293D-01-0.848D-01 0.207D+00 0.904D+00
 Gap=     0.333 Goal=   None    Shift=    0.000
 RMSDP=1.22D-05 MaxDP=7.70D-04 DE=-1.81D-06 OVMax= 3.93D-04

 Cycle   6  Pass 0  IDiag  1:
 RMSU=  7.33D-06    CP:  1.00D+00  1.24D+00  1.00D+00  1.10D+00  1.34D+00
 E= -383.438273678359     Delta-E=       -0.000000382513 Rises=F Damp=F
 DIIS: error= 3.95D-05 at cycle   6 NSaved=   6.
 NSaved= 6 IEnMin= 6 EnMin= -383.438273678359     IErMin= 6 ErrMin= 3.95D-05
 ErrMax= 3.95D-05  0.00D+00 EMaxC= 1.00D-01 BMatC= 2.35D-08 BMatP= 1.22D-07
 IDIUse=1 WtCom= 1.00D+00 WtEn= 0.00D+00
 Coeff-Com:  0.304D-03 0.742D-02-0.142D-01-0.201D+00 0.144D+00 0.106D+01
 Coeff:      0.304D-03 0.742D-02-0.142D-01-0.201D+00 0.144D+00 0.106D+01
 Gap=     0.333 Goal=   None    Shift=    0.000
 RMSDP=6.29D-06 MaxDP=3.18D-04 DE=-3.83D-07 OVMax= 2.33D-04

 Initial convergence to 1.0D-05 achieved.  Increase integral accuracy.
 Cycle   7  Pass 1  IDiag  1:
 E= -383.438273778886     Delta-E=       -0.000000100527 Rises=F Damp=F
 DIIS: error= 1.02D-05 at cycle   1 NSaved=   1.
 NSaved= 1 IEnMin= 1 EnMin= -383.438273778886     IErMin= 1 ErrMin= 1.02D-05
 ErrMax= 1.02D-05  0.00D+00 EMaxC= 1.00D-01 BMatC= 1.69D-09 BMatP= 1.69D-09
 IDIUse=1 WtCom= 1.00D+00 WtEn= 0.00D+00
 Coeff-Com:  0.100D+01
 Coeff:      0.100D+01
 Gap=     0.333 Goal=   None    Shift=    0.000
 RMSDP=6.29D-06 MaxDP=3.18D-04 DE=-1.01D-07 OVMax= 4.24D-05

 Cycle   8  Pass 1  IDiag  1:
 RMSU=  1.98D-06    CP:  1.00D+00
 E= -383.438273785336     Delta-E=       -0.000000006450 Rises=F Damp=F
 DIIS: error= 5.97D-06 at cycle   2 NSaved=   2.
 NSaved= 2 IEnMin= 2 EnMin= -383.438273785336     IErMin= 2 ErrMin= 5.97D-06
 ErrMax= 5.97D-06  0.00D+00 EMaxC= 1.00D-01 BMatC= 4.69D-10 BMatP= 1.69D-09
 IDIUse=1 WtCom= 1.00D+00 WtEn= 0.00D+00
 Coeff-Com: -0.170D+00 0.117D+01
 Coeff:     -0.170D+00 0.117D+01
 Gap=     0.333 Goal=   None    Shift=    0.000
 RMSDP=1.34D-06 MaxDP=1.31D-04 DE=-6.45D-09 OVMax= 3.06D-05

 Cycle   9  Pass 1  IDiag  1:
 RMSU=  5.09D-07    CP:  1.00D+00  1.52D+00
 E= -383.438273787401     Delta-E=       -0.000000002065 Rises=F Damp=F
 DIIS: error= 3.57D-06 at cycle   3 NSaved=   3.
 NSaved= 3 IEnMin= 3 EnMin= -383.438273787401     IErMin= 3 ErrMin= 3.57D-06
 ErrMax= 3.57D-06  0.00D+00 EMaxC= 1.00D-01 BMatC= 1.95D-10 BMatP= 4.69D-10
 IDIUse=1 WtCom= 1.00D+00 WtEn= 0.00D+00
 Coeff-Com: -0.427D+00 0.433D+00 0.994D+00
 Coeff:     -0.427D+00 0.433D+00 0.994D+00
 Gap=     0.333 Goal=   None    Shift=    0.000
 RMSDP=9.47D-07 MaxDP=9.07D-05 DE=-2.07D-09 OVMax= 2.16D-05

 Cycle  10  Pass 1  IDiag  1:
 RMSU=  1.77D-07    CP:  1.00D+00  1.94D+00  9.14D-01
 E= -383.438273788093     Delta-E=       -0.000000000693 Rises=F Damp=F
 DIIS: error= 4.99D-07 at cycle   4 NSaved=   4.
 NSaved= 4 IEnMin= 4 EnMin= -383.438273788093     IErMin= 4 ErrMin= 4.99D-07
 ErrMax= 4.99D-07  0.00D+00 EMaxC= 1.00D-01 BMatC= 4.81D-12 BMatP= 1.95D-10
 IDIUse=1 WtCom= 1.00D+00 WtEn= 0.00D+00
 Coeff-Com:  0.120D-01-0.747D-01-0.549D-02 0.107D+01
 Coeff:      0.120D-01-0.747D-01-0.549D-02 0.107D+01
 Gap=     0.333 Goal=   None    Shift=    0.000
 RMSDP=1.18D-07 MaxDP=4.14D-06 DE=-6.93D-10 OVMax= 3.41D-06

 Cycle  11  Pass 1  IDiag  1:
[...]
 341,-13.6861902,6.0055653,0.0013352,0.1947724,-3.7022609,-0.0009017,3.
 1916001,0.0011676,0.0934536,0.0001471,-0.0008819,-0.2741941,0.0007979,
 -2.4805301,-0.0007196,-0.2045905,3.0107662,0.0008,-3.1799596,-0.719000
 8,0.0000076,0.0243398,-1.449552,-0.0001849,-0.1903603,-0.0001505,0.471
 9435,0.0001828,-0.0000146,-0.0236566,0.001689,-0.6911315,0.0001281,-0.
 2225702,-1.0539815,0.0015238,-13.1686241,-3.8549742,-0.001993,2.414737
 ,4.709706,0.0001056,1.6220697,-0.0024844,2.9351894,-0.0003895,0.000596
 ,4.6806278,0.0002312,9.404879,0.001455,3.6439827,-1.5272585,-0.0005411
 ,10.8224939,12.0940031,0.0014453,1.9962258,-2.5111763,-0.0017165,6.638
 677,0.0005457,2.6455826,-0.0007531,-0.0012955,4.8501956,0.0013695,2.53
 29376,-0.0003936,3.8890439,4.0851804,0.0010333,5.4179784,8.3059794,0.0
 01501,0.2737341,-2.6395457,-0.0005132,1.1310383,0.0016013,0.284872,0.0
 001232,-0.0006385,0.0526991,0.0004222,-3.3951207,-0.000734,-0.0697452,
 2.1080074,0.0005537,-1.8557307,8.5442406,0.0005711,0.2060133,4.8634818
 ,0.0004069,3.0976476,0.0006702,0.2515929,0.0001866,0.0003788,-0.400018
 2,-0.0001784,3.7392069,0.0001412,0.0876899,3.3364457,-0.0000464,3.8362
 14,0.7190535,-0.0000078,-0.0243396,1.4495575,0.0001857,0.1904176,0.000
 1816,-0.4719678,-0.0001687,0.0000143,0.0236653,-0.0016485,0.6911411,-0
 .0001284,0.2225715,1.0540321,-0.0015306,13.1686328\HyperPolar=-0.00093
 27,-0.0004164,-0.0002462,-0.0000082,0.0003174,0.0001846,-0.0004012,0.0
 014952,0.0001463,0.0006123\Quadrupole=3.5249956,-7.0713137,3.5463181,0
 .0015788,0.0190039,-0.0013776\PG=C01 [X(C10H8)]\NImag=0\\0.75731416,0.
 00008028,0.16138543,0.06581060,-0.00007444,0.81180218,-0.16187577,-0.0
 0001867,0.04291337,0.74893370,-0.00000711,-0.07421627,0.00005399,0.000
 09562,0.16271284,-0.04567009,0.00004074,-0.44177790,-0.06504697,-0.000
 09650,0.82810724,0.04392072,0.00001574,-0.07855677,-0.27772910,-0.0000
 2475,-0.03565613,0.74187468,0.00000762,0.00705218,-0.00000304,-0.00001
 909,-0.07808619,0.00000483,0.00008102,0.18958159,-0.01676886,0.0000061
 8,-0.05916445,-0.07877418,-0.00000162,-0.15400340,0.00655908,-0.000072
 55,0.74922667,-0.00255791,-0.00000021,0.00634262,-0.03652724,-0.000006
 52,0.00218409,-0.28450412,-0.00003635,0.05093587,0.74186872,-0.0000051
 5,-0.00656876,0.00000948,-0.00000977,0.00519236,-0.00001012,-0.0000364
 2,-0.08487697,0.00002626,0.00008142,0.18958160,0.04392872,0.00001498,-
 0.07161473,0.02755582,-0.00000635,0.08492957,0.05093174,0.00002630,-0.
 22734352,0.00655558,-0.00007243,0.74923246,-0.06649652,-0.00001576,0.0
 3515126,-0.02557722,0.00000215,-0.04260423,0.04315349,-0.00000053,0.04
 689493,-0.13479739,-0.00001424,0.04454631,0.86466677,-0.00000678,0.008
 27865,-0.00000525,0.00000146,-0.00257330,0.00000251,-0.00000380,0.0051
 9238,0.00000700,-0.00000859,-0.07808630,0.00003542,0.00010480,0.162712
 90,-0.03318855,-0.00001538,0.08870307,-0.03745208,0.00000329,-0.070498
 73,0.07226664,0.00001071,0.00524885,0.00142832,0.00002905,-0.29693423,
 -0.00010636,-0.00007174,0.71237367,-0.26557692,-0.00003092,0.02076632,
 0.05070093,-0.00000687,0.10091359,-0.07653182,-0.00000574,-0.03516594,
 0.00620139,0.00001288,-0.09972192,-0.37357550,-0.00003499,-0.07587651,
 0.74258453,-0.00004266,-0.07557562,0.00001819,0.00000211,0.00827866,0.
 00001979,-0.00001076,-0.00656875,-0.00000640,0.00000484,0.00705218,-0.
 00001111,-0.00002346,-0.07421623,0.00000881,0.00007931,0.16138540,0.11
 061456,0.00003153,-0.19185585,0.03257379,0.00000966,-0.02849435,0.0024
 2019,-0.00000080,0.00235909,-0.03793407,-0.00000199,-0.02144512,-0.164
 45997,-0.00000435,-0.23007846,0.05754541,-0.00007772,0.82653197,0.0000
 5975,-0.00000005,0.00060654,0.00038417,0.00000070,-0.00125656,0.004183
 36,0.00000033,-0.00243066,0.00134267,-0.00000058,-0.00067894,-0.000086
 70,0.00000009,-0.00062316,0.00053036,0.00000009,-0.00000947,0.30816805
 ,0.00000006,-0.00013135,0.00000005,0.00000033,-0.00323014,-0.00000083,
 -0.00000422,0.00410444,0.00000154,-0.00000042,0.00589144,0.00000152,-0
 .00000024,-0.00017383,-0.00000010,0.00000009,-0.00004036,0.,0.00005948
 ,0.03013134,-0.00021166,-0.00000007,0.00011252,0.00160127,-0.00000041,
 0.00173789,0.03228329,0.00000671,-0.01059163,-0.00201227,0.00000132,-0
 .00642988,0.00191573,0.00000027,-0.00005443,-0.00007984,0.,-0.00006386
 ,-0.14004165,-0.00003633,0.14941815,-0.29567469,-0.00002046,-0.1298640
 7,0.00504167,-0.00000051,0.00298753,0.00176316,-0.00000148,0.00101997,
 0.00051108,0.00000005,0.00101221,-0.00387789,-0.00000205,0.00466514,-0
 .01828621,-0.00000080,-0.01921288,0.00000452,-0.00000002,-0.00002324,0
 .30967408,-0.00002062,-0.04572002,-0.00000639,0.00000429,0.00584804,0.
 00000259,-0.00000158,0.01073447,0.00000240,0.00000014,-0.00067206,0.00
 000018,-0.00000194,0.00579888,0.00000165,-0.00000554,0.00382471,-0.000
 00424,-0.00000003,0.00017094,0.00000002,0.00002340,0.03076480,-0.12873
 505,-0.00000621,-0.14632693,-0.03405837,-0.00000294,-0.01054810,0.0018
 9096,0.00000253,-0.00663131,0.00030910,0.00000009,-0.00103400,0.003953
 86,0.00000152,-0.00140675,0.01716027,0.00000117,0.01451314,0.00006559,
 0.00000003,-0.00002532,0.14055495,0.00000565,0.14918719,0.00514794,0.0
 0000027,-0.00328510,-0.29266162,-0.00005392,0.12938691,-0.01979336,-0.
 00000604,0.01882944,-0.00342014,-0.00000076,-0.00468479,0.00022026,0.0
 0000033,-0.00095455,0.00179237,-0.00000120,-0.00050397,0.00046713,0.00
 000019,-0.00130024,0.00096273,0.00000104,0.00055499,0.30696082,-0.0000
 0453,0.00615992,0.00000166,-0.00005397,-0.04493595,0.00003270,-0.00000
 143,0.00410450,0.00000157,-0.00000093,0.00589167,0.00000031,0.00000029
 ,-0.00114306,-0.00000018,-0.00000105,0.01022917,0.00000207,0.00000002,
 0.00029651,-0.00000012,0.00000118,-0.00647279,-0.00000090,0.00005975,0
 .03013135,0.03384840,0.00000725,-0.01061794,0.12893601,0.00003257,-0.1
 4652766,-0.01588453,-0.00000358,0.01338515,-0.00335150,0.00000049,-0.0
 0166697,-0.00071295,-0.00000015,-0.00075795,-0.00173010,0.00000191,-0.
 00642335,0.00003549,0.00000008,-0.00024254,-0.00054568,-0.00000108,0.0
 0113872,-0.14071905,-0.00003680,0.15062549,-0.01526098,-0.00000499,0.0
 1345241,-0.00639670,0.00000587,-0.05690740,-0.13479619,-0.00001422,0.0
 4454454,0.04315138,-0.00000050,0.04689498,-0.01368124,-0.00000171,-0.0
 1068359,0.01543147,0.00000264,-0.00179979,-0.29176282,-0.00005347,0.12
 989138,-0.00007290,0.00000018,-0.00159009,0.00126662,0.00000077,-0.000
 76143,0.86467876,-0.00000055,0.00654569,-0.00000179,0.00000251,0.00434
 235,-0.00000052,-0.00000857,-0.07808675,0.00003534,-0.00000384,0.00519
 212,0.00000697,-0.00000171,0.00711927,0.00000282,-0.00000199,-0.000718
 97,-0.00000019,-0.00005346,-0.04493599,0.00003264,-0.00000002,0.000106
 33,-0.00000026,0.00000040,-0.00323033,-0.00000065,0.00010420,0.1627125
 3,-0.02041306,-0.00000680,0.03554348,-0.03142850,0.00000323,-0.0559638
 9,0.00143065,0.00002893,-0.29692480,0.07226222,0.00001078,0.00524919,-
 0.01068361,0.00000280,-0.02660572,0.03366719,0.00000510,-0.00143764,0.
 12944039,0.00003258,-0.14742631,-0.00007222,-0.00000003,0.00035720,0.0
 0209644,-0.00000022,0.00085539,-0.00009838,-0.00007198,0.71236553,-0.0
 1099772,-0.00000399,0.01883715,-0.01439221,-0.00000175,-0.01108256,-0.
 03652557,-0.00000982,0.02755355,-0.27772175,-0.00001945,-0.07876832,-0
 .00639657,0.00000248,-0.03142844,0.02634821,0.00000257,0.00293485,0.00
 018791,0.00000034,-0.00097270,-0.00011217,0.00000009,0.00021678,-0.000
 61376,0.00000006,-0.00091891,-0.02557602,0.00000146,-0.03745004,0.7489
 2313,0.00000062,-0.00071897,-0.00000054,-0.00000176,0.00711928,0.00000
 265,-0.00000647,0.00519210,-0.00000632,-0.00002513,-0.07808667,-0.0000
 0179,0.00000586,0.00434236,0.00000319,-0.00000185,0.00654568,0.0000021
 0,0.00000029,-0.00114306,-0.00000020,0.00000014,-0.00086648,-0.0000001
 5,-0.00000028,-0.00017383,-0.00000022,0.00000213,-0.00257302,0.0000032
 9,0.00009598,0.16271248,-0.01662984,-0.00000582,0.02499152,-0.01108253
 ,0.00000268,-0.02589474,0.00218625,-0.00001017,0.08492619,-0.03565433,
 0.00000470,-0.15399985,-0.05690732,-0.00000063,-0.05596406,0.03680032,
 0.00000713,-0.00606570,-0.00073106,-0.00000014,-0.00072555,-0.00024360
 ,-0.00000022,0.00054855,0.00161996,0.00000015,0.00047262,-0.04260262,0
 .00000256,-0.07049544,-0.06505161,-0.00009655,0.82812171,-0.00350258,-
 0.00000144,-0.00470123,0.00018791,0.00000030,-0.00073110,0.00134274,-0
 .00000059,-0.00067892,0.00418337,0.00000033,-0.00243061,-0.29176209,-0
 .00005361,0.12944075,-0.01988567,-0.00000645,0.01980145,-0.00000058,-0
 .00000002,-0.00001842,-0.00118023,-0.00000029,0.00090982,-0.00002815,0
 .00000014,0.00008645,-0.00008670,0.00000010,-0.00062317,0.00038414,0.0
 0000070,-0.00125661,0.30816731,-0.00000161,0.01022917,0.00000076,0.000
 00033,-0.00114306,-0.00000017,-0.00000040,0.00589167,0.00000152,-0.000
 00422,0.00410450,0.00000159,-0.00005360,-0.04493595,0.00003257,-0.0000
 0165,0.00615993,0.00000189,-0.00000002,0.00014925,0.00000009,-0.000000
 06,-0.00003302,0.00000007,0.00000013,-0.00102226,-0.00000013,-0.000000
 24,-0.00017383,-0.00000011,0.00000033,-0.00323033,-0.00000084,0.000059
 63,0.03013135,-0.00347509,0.00000096,-0.00112839,-0.00097270,-0.000000
 20,-0.00072560,-0.00201221,0.00000132,-0.00642986,0.03228334,0.0000067
 2,-0.01059156,0.12989168,0.00003269,-0.14742719,-0.01733207,-0.0000036
 6,0.01441565,-0.00001843,0.00000009,-0.00058225,-0.00086888,-0.0000002
 0,0.00048547,0.00011317,-0.00000013,0.00008386,0.00191571,0.00000027,-
 0.00005444,0.00160127,-0.00000041,0.00173787,-0.14004205,-0.00003639,0
 .14941899,0.00753486,-0.00000356,0.03164911,-0.00567671,-0.00000209,0.
 00294450,-0.00122789,0.,-0.00066668,-0.00586340,-0.00000217,-0.0023884
 8,0.00644473,0.00000442,-0.03327108,-0.07173154,-0.00000350,-0.0030750
 7,0.00002615,0.,-0.00009663,0.00105515,0.00000073,-0.00094298,0.000069
 13,-0.00000019,0.00161086,0.00040178,0.00000012,0.00050517,0.00096361,
 0.00000026,-0.00100848,0.00109260,0.00000105,0.00062786,0.06765262,0.0
 0000119,0.00382471,0.00000665,-0.00000217,0.00579888,0.00000117,-0.000
 00010,-0.00067206,-0.00000029,-0.00000207,0.01073447,0.00000090,-0.000
 00039,0.00584805,-0.00000266,-0.00000338,-0.04572004,0.00004172,0.,0.0
 0004961,0.,0.00000054,-0.00302807,-0.00000064,0.00000004,-0.00003302,0
 .00000033,0.00000019,-0.00086648,-0.00000004,0.00000007,0.00010632,-0.
 00000004,0.00000119,-0.00647280,-0.00000088,0.00000489,0.03076482,-0.0
 0472403,0.00000127,-0.01130795,0.00365579,0.00000125,0.00039206,0.0000
 3644,-0.00000017,0.00070497,-0.00325948,0.00000077,0.00099525,0.003774
 82,0.00000288,-0.01195118,-0.00420410,0.00004152,-0.37026995,0.0000182
 9,0.,0.00000781,0.00054408,-0.00000042,0.00083131,-0.00016784,0.000000
 07,-0.00076388,0.00004479,-0.00000011,0.00003460,0.00050939,0.00000018
 ,-0.00067931,-0.00047281,-0.00000104,0.00100885,0.00475078,-0.00004611
 ,0.39120855,-0.01145345,-0.00000377,0.01581857,-0.01099782,0.00000064,
 -0.01662990,-0.00255644,-0.00000518,0.04392672,0.04391850,0.00000768,-
 0.01676880,-0.01526115,-0.00000059,-0.02041319,0.01958770,0.00000291,0
 .00009287,-0.00350247,-0.00000159,-0.00347503,-0.00006629,-0.00000006,
 0.00030897,0.00011654,0.00000006,-0.00024168,-0.06649530,-0.00000683,-
 0.03318644,-0.16187425,-0.00000711,-0.04566803,0.00005975,0.00000005,-
 0.00021167,-0.00021876,0.00000011,-0.00036468,0.75730274,-0.00000381,0
 .00011354,0.00000600,-0.00000401,-0.00071896,-0.00000586,-0.00000024,-
 0.00656873,0.00001509,0.00001581,0.00705204,0.00000619,-0.00000502,0.0
 0654542,-0.00000686,0.00000743,-0.00006584,-0.00000005,-0.00000142,0.0
 1022939,0.00000097,-0.00000005,0.00009311,0.00000011,0.00000006,-0.000
 04037,-0.00000009,-0.00001574,0.00827854,-0.00001550,-0.00001873,-0.07
 421521,0.00004102,-0.00000005,-0.00013134,-0.00000006,0.00000014,-0.00
 064517,-0.00000012,0.00008055,0.16138506,0.01581853,0.00000597,-0.0276
 0538,0.01883716,-0.00000058,0.02499159,0.00634049,0.00000949,-0.071611
 28,-0.07855248,-0.00000309,-0.05916471,0.01345236,-0.00000176,0.035543
 61,-0.03421125,-0.00000516,0.00044294,-0.00470125,0.00000077,-0.001128
 41,0.00016436,0.00000008,-0.00037540,-0.00031203,-0.00000010,0.0003499
 7,0.03514951,-0.00000528,0.08869979,0.04291154,0.00005424,-0.44179494,
 0.00060654,0.00000006,0.00011254,-0.00058182,-0.00000016,-0.00017083,0
 .06581535,-0.00007519,0.81181690,0.01958762,0.00000738,-0.03421130,0.0
 2634834,-0.00000189,0.03680045,0.00619878,0.00001296,-0.09971787,-0.07
 652707,-0.00000582,-0.03516622,0.01543151,-0.00000197,0.03366729,-0.03
 723892,-0.00000574,0.00134968,-0.01988571,-0.00000164,-0.01733213,0.00
 022162,0.00000017,-0.00033471,-0.00006862,-0.00000006,0.00053452,-0.37
 358813,-0.00003453,-0.07588609,0.05069862,-0.00000688,0.10090984,0.000
 53037,0.00000010,-0.00007982,-0.00050338,-0.00000009,-0.00008090,-0.26
 556873,-0.00003132,0.02076396,0.74258898,0.00000292,-0.00006584,-0.000
 00518,0.00000258,0.00654542,0.00000715,0.00000484,0.00705204,-0.000011
 15,-0.00001077,-0.00656873,-0.00000643,0.00000265,-0.00071896,0.000005
 13,-0.00000576,0.00011354,0.00000046,-0.00000646,0.00616010,-0.0000036
 6,0.00000015,-0.00064517,-0.00000005,0.00000005,-0.00013134,0.00000003
 ,-0.00002303,-0.07421521,0.00000912,0.00000211,0.00827855,0.00001985,0
 .00000009,-0.00004037,0.,-0.00000010,0.00009311,0.,-0.00004309,-0.0755
 7617,0.00001844,0.00007931,0.16138507,0.00009283,-0.00000006,0.0004430
 2,0.00293489,0.00000211,-0.00606586,-0.03793422,-0.00000188,-0.0214449
 8,0.00242003,-0.00000081,0.00235925,-0.00179976,-0.00000019,-0.0014377
 2,0.00134972,0.00000046,-0.00181993,0.01980143,0.00000185,0.01441566,-
 0.00011757,-0.00000002,-0.00061121,-0.00028370,-0.00000009,0.00024090,
 -0.16446572,-0.00000408,-0.23008108,0.03257391,0.00000972,-0.02849412,
 -0.00000947,0.,-0.00006386,0.00006371,0.00000002,0.00006169,0.11060851
 ,0.00003187,-0.19185231,0.05755871,-0.00007850,0.82653067,0.00011655,0
 .00000006,-0.00031204,-0.00061377,-0.00000028,0.00161997,-0.00342015,-
 0.00000077,-0.00468481,-0.01979340,-0.00000604,0.01882942,0.00126662,0
 .00000040,0.00209644,-0.00006864,0.00000005,-0.00028370,-0.00002815,0.
 00000013,0.00011317,0.00004563,0.00000001,-0.00008570,-0.00042724,-0.0
 0000005,-0.00025783,0.00022028,0.00000033,-0.00095454,-0.29266059,-0.0
 0005389,0.12938763,0.00046713,0.00000019,-0.00130023,-0.00003625,-0.00
 000003,-0.00004612,0.00514800,0.00000028,-0.00328513,0.00179236,-0.000
 00119,-0.00050398,0.30695975,0.00000006,-0.00004036,-0.00000010,0.0000
 0005,-0.00017383,0.00000016,-0.00000095,0.00589144,0.00000029,-0.00000
 149,0.00410445,0.00000160,0.00000077,-0.00323015,-0.00000022,-0.000000
 06,-0.00013135,-0.00000009,0.00000014,-0.00102227,-0.00000013,0.,0.000
 04961,0.,-0.00000005,0.00014925,0.,0.00000029,-0.00114306,-0.00000020,
 -0.00005384,-0.04493599,0.00003258,0.00000002,0.00029651,-0.00000012,-
 0.00000004,0.00017094,0.00000001,-0.00000456,0.00616010,0.00000170,-0.
 00000103,0.01022939,0.00000210,0.00005971,0.03013134,-0.00024167,-0.00
 000009,0.00034995,-0.00091891,-0.00000022,0.00047264,-0.00335147,0.000
 00049,-0.00166705,-0.01588457,-0.00000359,0.01338506,-0.00076141,-0.00
 000065,0.00085543,0.00053450,0.00000003,0.00024090,0.00008646,-0.00000
 013,0.00008386,0.00002922,0.00000001,-0.00001168,-0.00025783,0.,-0.000
 15559,-0.00071289,-0.00000016,-0.00075791,0.12893670,0.00003250,-0.146
 52859,0.00003549,0.00000008,-0.00024255,0.00004271,0.00000003,0.000015
 45,0.03384840,0.00000726,-0.01061800,-0.00173020,0.00000191,-0.0064232
 6,-0.14071970,-0.00003674,0.15062650,-0.00006629,-0.00000005,0.0001643
 7,-0.00011218,0.00000015,-0.00024361,0.00051111,0.00000005,0.00101221,
 0.00176314,-0.00000148,0.00102000,-0.00007289,-0.00000002,-0.00007224,
 0.00022163,0.00000014,-0.00011758,-0.00118023,-0.00000006,-0.00086888,
 -0.00001648,0.,-0.00001935,0.00004563,0.,0.00002922,-0.00387793,-0.000
 00206,0.00466517,0.00504177,-0.00000050,0.00298757,0.00000452,-0.00000
 002,-0.00002324,0.00000721,0.,-0.00000997,-0.29567336,-0.00002033,-0.1
 2986491,-0.01828622,-0.00000078,-0.01921290,0.00096273,0.00000118,-0.0
 0054569,0.30967272,-0.00000006,0.00009311,0.00000009,0.00000008,-0.000
 86646,-0.00000022,0.00000014,-0.00067204,0.00000020,-0.00000157,0.0107
 3470,0.00000241,0.00000018,0.00010632,-0.00000004,0.00000017,-0.000645
 20,-0.00000003,-0.00000029,-0.00003303,-0.00000020,0.,0.00005941,0.,0.
 00000001,0.00004961,0.00000001,-0.00000196,0.00579859,0.00000166,0.000
 00431,0.00584822,0.00000257,-0.00000003,0.00017095,0.00000002,0.000000
 02,-0.00001269,0.,-0.00002040,-0.04572004,-0.00000618,-0.00000560,0.00
 382463,-0.00000429,0.00000104,-0.00647298,-0.00000107,0.00002325,0.030
 76476,0.00030895,0.00000011,-0.00037540,0.00021678,-0.00000015,0.00054
 855,0.00030905,0.00000009,-0.00103396,0.00189106,0.00000255,-0.0066312
 1,-0.00159010,-0.00000027,0.00035718,-0.00033471,-0.00000005,-0.000611
 20,0.00090982,0.00000007,0.00048547,-0.00001935,0.,-0.00000325,-0.0000
 8570,0.,-0.00001168,0.00395383,0.00000154,-0.00140684,-0.03405834,-0.0
 0000293,-0.01054818,0.00006559,0.00000004,-0.00002532,-0.00015904,-0.0
 0000001,-0.00008763,-0.12873588,-0.00000604,-0.14632812,0.01716028,0.0
 0000117,0.01451307,0.00055500,-0.00000091,0.00113872,0.14055573,0.0000
 0547,0.14918848,-0.00021875,0.00000014,-0.00058181,0.00096361,0.000000
 26,-0.00100850,-0.00586339,-0.00000216,-0.00238837,-0.00122783,0.,-0.0
 0066671,0.00040178,0.00000012,0.00050517,-0.00050338,-0.00000010,0.000
 06369,0.00109260,0.00000105,0.00062786,0.00000721,0.00000002,-0.000159
 04,-0.00003625,-0.00000004,0.00004271,0.00644464,0.00000443,-0.0332711
 8,-0.00567679,-0.00000211,0.00294446,0.00002615,0.,-0.00009663,0.00001
 009,0.,-0.00000443,0.00753481,-0.00000357,0.03164909,-0.07173141,-0.00
 000351,-0.00307643,0.00006913,-0.00000019,0.00161086,0.00105514,0.0000
 0074,-0.00094298,0.06765264,0.00000011,-0.00064520,-0.00000015,0.00000
 006,0.00010631,-0.00000005,-0.00000204,0.01073470,0.00000093,-0.000000
 09,-0.00067204,-0.00000029,0.00000018,-0.00086646,-0.00000004,-0.00000
 008,0.00009311,0.00000001,0.00000118,-0.00647299,-0.00000088,0.,-0.000
 01269,-0.00000001,-0.00000002,0.00017095,0.00000003,-0.00000040,0.0058
 4823,-0.00000262,-0.00000220,0.00579858,0.00000115,0.,0.00004961,0.,0.
 ,0.00005941,0.00000001,0.00000117,0.00382463,0.00000674,-0.00000335,-0
 .04572006,0.00004181,0.00000004,-0.00003302,0.00000034,0.00000054,-0.0
 0302786,-0.00000065,0.00000491,0.03076479,-0.00036468,-0.00000012,-0.0
 0017082,0.00050937,0.00000018,-0.00067932,-0.00325944,0.00000079,0.000
 99531,0.00003645,-0.00000018,0.00070498,0.00004478,-0.00000011,0.00003
 459,-0.00008089,0.,0.00006168,-0.00047281,-0.00000105,0.00100885,-0.00
 000997,0.,-0.00008763,-0.00004611,0.00000001,0.00001545,0.00377477,0.0
 0000288,-0.01195112,0.00365580,0.00000125,0.00039201,0.00001829,0.,0.0
 0000781,-0.00000443,0.00000001,-0.00002983,-0.00472408,0.00000126,-0.0
 1130796,-0.00420551,0.00004172,-0.37026992,-0.00016784,0.00000007,-0.0
 0076388,0.00054408,-0.00000042,0.00083131,0.00475223,-0.00004631,0.391
 20848\\-0.00000101,-0.00000004,0.00000010,-0.00000130,0.00000044,0.000
 00166,0.00000187,-0.00000026,-0.00000406,-0.00000408,-0.00000009,0.000
 00050,0.00000197,0.00000030,-0.00000067,0.00000071,-0.00000016,-0.0000
 0066,-0.00000005,0.00000007,0.00000031,-0.00000004,-0.00000005,0.00000
 212,-0.00000045,-0.00000009,-0.00000037,0.00000020,-0.00000003,0.00000
 428,0.00000348,-0.00000011,0.00000209,-0.00000011,-0.00000004,-0.00000
 059,0.00000186,0.,0.00000098,0.00000328,0.00000034,-0.00000377,-0.0000
 0488,-0.00000027,0.00000079,0.00000025,-0.00000002,0.00000005,-0.00000
 015,-0.00000004,-0.00000178,-0.00000155,0.00000004,-0.00000098\\\@


 ... FOR AFTERWARDS A MAN FINDS PLEASURE IN HIS PAINS,
 WHEN HE HAS SUFFERED LONG AND WANDERED FAR.

                                    -- HOMER
 Job cpu time:       0 days  0 hours 17 minutes 56.7 seconds.
 Elapsed time:       0 days  0 hours  1 minutes 30.2 seconds.
 File lengths (MBytes):  RWF=    120 Int=      0 D2E=      0 Chk=      7 Scr=      1
 Normal termination of Gaussian 16 at Mon Oct 10 13:50:29 2022.
