
 Working directory              : /scratch/ddi/mpscr/molpro.knf06UpqOi/
 Global scratch directory       : /scratch/ddi/mpscr/molpro.knf06UpqOi/
 Wavefunction directory         : /home/ddi/storage_4/Kemal/CH4/
 Main file repository           : /home/ddi/storage_4/Kemal/CH4/

 id        : liedlgroup

 Nodes     nprocs
 ae2-c724    12
 GA implementation: MPI file
 GA implementation (serial work in mppx): MPI file

 Using customized tuning parameters: mindgm=1; mindgv=20; mindgc=4; mindgr=1; noblas=0; minvec=7
 default implementation of scratch files=sf  


 Variables initialized (1015), CPU time= 0.01 sec
 ***,ch4 (methane) vibrational spectrum
 memory,256,m
 
 orient,mass
 geometry={
 C
 H1,C,B1
 H2,C,B1,H1,A1
 H3,C,B1,H2,A1,H1,120.0
 H4,C,B1,H2,A1,H1,-120.0
 }
  B1=                  1.08617963 ANG
  A1=                109.47122029 DEGREE
 
 mass,iso
 basis=vtz
 {hf
 start,atden}
 mp2
 optg
 {frequencies, symm=auto, print=0}
 put,molden,ch4_molden.dat
 Commands initialized (818), CPU time= 0.01 sec, 672 directives.
 Default parameters read. Elapsed time= 0.13 sec

 Checking input...
 Passed
1


                                         ***  PROGRAM SYSTEM MOLPRO  ***
                                       Copyright, TTI GmbH Stuttgart, 2015
                                    Version 2022.1 linked Jan 25 2022 12:44:58


 **********************************************************************************************************************************
 LABEL *   ch4 (methane) vibrational spectrum                                            
  64 bit mpp version                                                                     DATE: 23-Feb-22          TIME: 13:30:29  
 **********************************************************************************************************************************

 SHA1:             f3d4322b9bdbeed63a35be676bd653804e8a9433
 **********************************************************************************************************************************

 Memory per process:       256 MW
 Total memory per node:   3072 MW

 GA preallocation disabled
 GA check disabled

 Variable memory set to 256.0 MW

 ZCENTRE=MASS

 SETTING B1             =         1.08617963  ANG                             
 SETTING A1             =       109.47122029  DEGREE                          


 Using masses of most abundant isotopes

 **********************************************************************************************************************************
 SETTING BASIS          =    VTZ


 Recomputing integrals since basis changed


 Using spherical harmonics

 Library entry C      S cc-pVTZ              selected for orbital group  1
 Library entry C      P cc-pVTZ              selected for orbital group  1
 Library entry C      D cc-pVTZ              selected for orbital group  1
 Library entry C      F cc-pVTZ              selected for orbital group  1
 Library entry H      S cc-pVTZ              selected for orbital group  2
 Library entry H      P cc-pVTZ              selected for orbital group  2
 Library entry H      D cc-pVTZ              selected for orbital group  2


 PROGRAM * SEWARD (Integral evaluation for generally contracted gaussian basis sets)     Author: Roland Lindh, 1990

 Geometry written to block  1 of record 700

 Orientation using atomic masses  
 Molecule type: Spherical top,     Neighbour degeneracy = 4
 Symmetry elements: X,Y
 Rotational constants:     159.3896155    159.3896155    159.3896144 GHz

 Point group  C2v 



 ATOMIC COORDINATES

 NR  ATOM    CHARGE       X              Y              Z

   1  C       6.00    0.000000000    0.000000000   -0.000000001
   2  H1      1.00    1.675926200    0.000000000    1.185058787
   3  H2      1.00   -1.675926200    0.000000000    1.185058787
   4  H3      1.00    0.000000000   -1.675926207   -1.185058780
   5  H4      1.00    0.000000000    1.675926207   -1.185058780

 Bond lengths in Bohr (Angstrom)

 1-2  2.052582023  1-3  2.052582023  1-4  2.052582023  1-5  2.052582023
     ( 1.086179630)     ( 1.086179630)     ( 1.086179630)     ( 1.086179630)

 Bond angles

  2-1-3  109.47122029   2-1-4  109.47122063   2-1-5  109.47122063   3-1-4  109.47122063

  3-1-5  109.47122063   4-1-5  109.47122098

 NUCLEAR CHARGE:                   10
 NUMBER OF PRIMITIVE AOS:         115
 NUMBER OF SYMMETRY AOS:          106
 NUMBER OF CONTRACTIONS:           86   (   33A1  +   21B1  +   21B2  +   11A2  )
 NUMBER OF INNER CORE ORBITALS:     0   (    0A1  +    0B1  +    0B2  +    0A2  )
 NUMBER OF OUTER CORE ORBITALS:     1   (    1A1  +    0B1  +    0B2  +    0A2  )
 NUMBER OF VALENCE ORBITALS:        8   (    4A1  +    2B1  +    2B2  +    0A2  )


 NUCLEAR REPULSION ENERGY   13.48264494


 Eigenvalues of metric

         1 0.126E-02 0.195E-02 0.391E-02 0.107E-01 0.125E-01 0.254E-01 0.287E-01 0.368E-01
         2 0.195E-02 0.107E-01 0.254E-01 0.368E-01 0.727E-01 0.114E+00 0.127E+00 0.240E+00
         3 0.195E-02 0.107E-01 0.254E-01 0.368E-01 0.727E-01 0.114E+00 0.127E+00 0.240E+00
         4 0.287E-01 0.127E+00 0.272E+00 0.365E+00 0.485E+00 0.948E+00 0.995E+00 0.117E+01


 Contracted 2-electron integrals neglected if value below      1.0D-11
 AO integral compression algorithm  1   Integral accuracy      1.0D-11

     12.845 MB (compressed) written to integral file ( 66.4%)

     Node minimum: 0.786 MB, node maximum: 1.311 MB


 NUMBER OF SORTED TWO-ELECTRON INTEGRALS:     151758.     BUFFER LENGTH:  32768
 NUMBER OF SEGMENTS:   1  SEGMENT LENGTH:     151758      RECORD LENGTH: 524288

 Memory used in sort:       0.71 MW

 SORT1 READ     2418100. AND WROTE      148191. INTEGRALS IN      1 RECORDS. CPU TIME:     0.04 SEC, REAL TIME:     0.04 SEC
 SORT2 READ     1790135. AND WROTE     1833876. INTEGRALS IN     48 RECORDS. CPU TIME:     0.00 SEC, REAL TIME:     0.01 SEC

 Node minimum:      149501.  Node maximum:      159072. integrals

 OPERATOR DM      FOR CENTER  0  COORDINATES:    0.000000    0.000000    0.000000


 **********************************************************************************************************************************
 DATASETS  * FILE   NREC   LENGTH (MB)   RECORD NAMES
              1      18       28.68       500      610      700      900      950      970     1000      129      960     1100   
                                          VAR    BASINP    GEOM    SYMINP    ZMAT    AOBASIS   BASIS     P2S    ABASIS      S 
                                         1400     1410     1200     1210     1080     1600     1650     1700   
                                           T        V       H0       H01     AOSYM     SMH    MOLCAS    OPER   

 PROGRAMS   *        TOTAL       INT
 CPU TIMES  *         0.49      0.30
 REAL TIME  *         0.84 SEC
 DISK USED  *        28.99 MB (local),      405.27 MB (total)
 GA USED    *         0.00 MB       (max)       0.00 MB       (current)
 **********************************************************************************************************************************


 Program * Restricted Hartree-Fock

 Orbital guess generated from atomic densities. Full valence occupancy:    5   2   2   0

 Initial occupancy:   3   1   1   0

 NELEC=   10   SYM=1   MS2= 0   THRE=1.0D-08   THRD=1.0D-06   THRG=1.0D-06  HFMA2=F  DIIS_START=2   DIIS_MAX=10   DIIS_INCORE=F

 Level shifts:    0.00 (CLOSED)    0.00 (OPEN)    0.30 (GAP_MIN)

 ITER           ETOT              DE          GRAD        DDIFF     DIIS  NEXP   TIME(IT)  TIME(TOT)  DIAG
   1      -40.19470095     -40.19470095     0.00D+00     0.14D+00     0     0       0.00      0.00    start
   2      -40.21097621      -0.01627527     0.10D-01     0.14D-01     1     0       0.00      0.00    diag
   3      -40.21311092      -0.00213471     0.39D-02     0.41D-02     2     0       0.00      0.00    diag
   4      -40.21341698      -0.00030605     0.99D-03     0.14D-02     3     0       0.01      0.01    diag
   5      -40.21342190      -0.00000492     0.13D-03     0.33D-03     4     0       0.00      0.01    diag
   6      -40.21342193      -0.00000003     0.96D-05     0.43D-04     5     0       0.00      0.01    diag
   7      -40.21342193      -0.00000000     0.63D-06     0.28D-05     6     0       0.00      0.01    diag
   8      -40.21342193      -0.00000000     0.47D-07     0.15D-06     7     0       0.00      0.01    fixocc
   9      -40.21342193       0.00000000     0.36D-08     0.73D-08     0     0       0.00      0.01    diag

 Final occupancy:   3   1   1   0

 !RHF STATE 1.1 Energy                -40.213421930893
  RHF One-electron energy             -79.820355085801
  RHF Two-electron energy              26.124288219830
  RHF Kinetic energy                   40.171034046809
  RHF Nuclear energy                   13.482644935078
  RHF Virial quotient                  -1.001055185287

 !RHF STATE 1.1 Dipole moment           0.00000000     0.00000000     0.00000000
 Dipole moment /Debye                   0.00000000     0.00000000     0.00000000

 Orbital energies:

           1.1          2.1          3.1          4.1          5.1
    -11.205342    -0.944000    -0.545516     0.143651     0.229684

           1.2          2.2          3.2
     -0.545516     0.229684     0.364184

           1.3          2.3          3.3
     -0.545516     0.229684     0.364184

           1.4          2.4
      0.685025     1.077212


 HOMO      1.2    -0.545516 =     -14.8442eV
 LUMO      4.1     0.143651 =       3.9089eV
 LUMO-HOMO         0.689167 =      18.7532eV

 Orbitals saved in record  2100.2


 **********************************************************************************************************************************
 DATASETS  * FILE   NREC   LENGTH (MB)   RECORD NAMES
              1      18       28.68       500      610      700      900      950      970     1000      129      960     1100   
                                          VAR    BASINP    GEOM    SYMINP    ZMAT    AOBASIS   BASIS     P2S    ABASIS      S 
                                         1400     1410     1200     1210     1080     1600     1650     1700   
                                           T        V       H0       H01     AOSYM     SMH    MOLCAS    OPER   

              2       4        0.42       700     1000      520     2100   
                                         GEOM     BASIS   MCVARS     RHF  

 PROGRAMS   *        TOTAL    HF-SCF       INT
 CPU TIMES  *         0.50      0.01      0.30
 REAL TIME  *         0.87 SEC
 DISK USED  *        29.29 MB (local),      408.87 MB (total)
 GA USED    *         0.00 MB       (max)       0.00 MB       (current)
 **********************************************************************************************************************************


 PROGRAM * MP2 (Closed-shell)     Authors: C. Hampel, H.-J. Werner, 1991, M. Deegan, P.J. Knowles, 1992


 Convergence thresholds:  THRVAR = 1.00D-12  THRDEN = 1.00D-08

 Number of core orbitals:           1 (   1   0   0   0 )
 Number of closed-shell orbitals:   4 (   2   1   1   0 )
 Number of external orbitals:      81 (  30  20  20  11 )

 Molecular orbitals read from record     2100.2  Type=RHF/CANONICAL  

 Number of N-1 electron functions:               4
 Number of N-2 electron functions:              10
 Number of singly external CSFs:               100
 Number of doubly external CSFs:             13645
 Total number of CSFs:                       13746

 Length of J-op  integral file:               0.00 MB
 Length of K-op  integral file:               0.14 MB

 Integral transformation finished. Total CPU:   0.01 sec, npass=  1  Memory used:   0.09 MW

 Memory needed for MP2:                      0.01 MW

 SCS-MP2 correlation energy:           -0.206463115674   (PS=  1.200000  PT=  0.333333)
 SCS-MP2 total energy:                -40.419885046568


  Reference energy                    -40.213421930893
  MP2 singlet pair energy              -0.143847622269
  MP2 triplet pair energy              -0.054395307244
  MP2 correlation energy               -0.198242929513

 !MP2 total energy                    -40.411664860406

 KEXT needed  1 integral passes. Memory used:   0.11 MW  CPU time:      0.00 sec

 CPHF start vector      0.2 not found

 Starting Coupled-perturbed Hartree-Fock, convergence threshold= 1.0D-06

 ITER   MIC  DIIS      VAR         VARC       CPU
   1     0     1    0.22D-01    0.14D-02     0.00
   2     4     2    0.16D-03    0.40D-04     0.01
   3     3     3    0.14D-04    0.19D-05     0.01
   4     2     4    0.26D-06    0.56D-07     0.01

 CPHF convergence reached in  4 macroiterations and    9 microiterations.   Accuracy: 2.6319D-07

 CPHF solution written to record  4100.2

 Dipole moments (unrelaxed):            0.00000000     0.00000000     0.00000000
 Orbital relaxation contribution:      -0.00000000    -0.00000000     0.00000000
 !MP2 STATE 1.1 Dipole moment           0.00000000     0.00000000     0.00000000
 Dipole moment /Debye                   0.00000000     0.00000000     0.00000000

 CPU-time for density and lagrangian:                  0.00 sec
 CPU-time for coupled-perturbed hartree-fock:          0.01 sec

 MP2 gradient info saved on record         5200.1


 **********************************************************************************************************************************
 DATASETS  * FILE   NREC   LENGTH (MB)   RECORD NAMES
              1      20       29.12       500      610      700      900      950      970     1000      129      960     1100   
                                          VAR    BASINP    GEOM    SYMINP    ZMAT    AOBASIS   BASIS     P2S    ABASIS      S 
                                         1400     1410     1200     1210     1080     1600     1650     1700     1380     5200   
                                           T        V       H0       H01     AOSYM     SMH    MOLCAS    OPER     JKOP      MP2  

              2       5        0.52       700     1000      520     2100     4100   
                                         GEOM     BASIS   MCVARS     RHF     CPHF   

 PROGRAMS   *        TOTAL       MP2    HF-SCF       INT
 CPU TIMES  *         0.55      0.04      0.01      0.30
 REAL TIME  *         0.95 SEC
 DISK USED  *        29.69 MB (local),      413.78 MB (total)
 SF USED    *         1.00 MB
 GA USED    *         0.00 MB       (max)       0.00 MB       (current)
 **********************************************************************************************************************************


 PROGRAM * OPT (Geometry optimization)     Authors: F. Eckert and H.-J. Werner


 BFGS update of hessian

 *** Long output written to logfile /media/storage_4_240T/ddi/Kemal/CH4/ch4.log ***


 Geometry optimization using default procedure for command MP2

 Geometry written to block  1 of record 700

 Making model hessian for Z-matrix coordinates

 Entering Rational Function Geometry Optimization

 ITER.   ENERGY(OLD)    ENERGY(NEW)      DE          GRADMAX     GRADNORM    GRADRMS     STEPMAX     STEPLEN     STEPRMS   CPU-time
   1   -40.41166486   -40.41166642    -0.00000156  0.00219331  0.00219331  0.00155090  0.00112642  0.00112642  0.00056321      0.51
   2   -40.41166642   -40.41166653    -0.00000011  0.00057190  0.00057190  0.00040440  0.00039731  0.00039731  0.00019865      1.03
   3   -40.41166653   -40.41166652     0.00000001  0.00000127  0.00000127  0.00000090  0.00000088  0.00000088  0.00000044      1.55

 END OF GEOMETRY OPTIMIZATION.

 Optimized variables
 B1=                  1.08537377 ANG
 A1=                109.47122054 DEGREE

 **********************************************************************************************************************************

 Geometry written to block  1 of record 700

 Recomputing wavefunction for reoriented structure

 Current geometry (xyz format, in Angstrom)

    5
 MP2/VTZ  ENERGY=-40.41166652
 C          0.0000000000        0.0000000000       -0.0000000002
 H          0.8862039754        0.0000000000        0.6266408414
 H         -0.8862039754        0.0000000000        0.6266408414
 H          0.0000000000       -0.8862039764       -0.6266408403
 H          0.0000000000        0.8862039764       -0.6266408403

 **********************************************************************************************************************************


 **********************************************************************************************************************************
 DATASETS  * FILE   NREC   LENGTH (MB)   RECORD NAMES
              1      21       29.30       500      610      700      900      950      970     1000      129      960     1100   
                                          VAR    BASINP    GEOM    SYMINP    ZMAT    AOBASIS   BASIS     P2S    ABASIS      S 
                                         1400     1410     1200     1210     1080     1600     1650     1700     1380     5200   
                                           T        V       H0       H01     AOSYM     SMH    MOLCAS    OPER     JKOP      MP2  
                                         5201   
                                          MP2  

              2       6        0.57       700     1000      520     2100     4100     9001   
                                         GEOM     BASIS   MCVARS     RHF     CPHF    DEN_MP2    

 PROGRAMS   *        TOTAL      OPTG       MP2    HF-SCF       INT
 CPU TIMES  *         2.16      1.60      0.04      0.01      0.30
 REAL TIME  *         2.84 SEC
 DISK USED  *        29.92 MB (local),      416.47 MB (total)
 SF USED    *         1.03 MB
 GA USED    *         0.00 MB       (max)       0.00 MB       (current)
 **********************************************************************************************************************************


 PROGRAM * HESSIAN

 Computing numerical hessian using default procedure for command MP2

 Symmetry elements for unique displacements: X  Y  

 Using AUTO symmetry option

 Running default procedure: HF-SCF000  MP2


 Numerically approximating hessian using central gradient differences

 Task list generated. Total number of displacements:     14

 All  14 tasks completed.  CPU=      2.84 sec, Elapsed=      2.85 sec.

 MP2 hessian saved to record  5300.2

 PROGRAM * FREQUENCIES (Calculation of harmonic vibrational spectra for MP2)


 Permanent Dipole Moment [debye]
   1-  3    0.000000    0.000000    0.000000

 Dipole Moment Norm    0.0000000 [debye]

 Dipole Moment Derivatives [debye/ang]
              1             2             3             4             5             6             7             8
    1    -0.0723542     0.0000000     0.0000000    -0.2734177     0.0000000    -0.4121256    -0.2734177     0.0000000
    2     0.0000000    -0.0723542     0.0000000     0.0000000     0.3094104     0.0000000     0.0000000     0.3094104
    3     0.0000000     0.0000000    -0.0722977    -0.4121241     0.0000000     0.0179957     0.4121241     0.0000000
              9            10            11            12            13            14            15
    1     0.4121256     0.3094103     0.0000000     0.0000000     0.3094103     0.0000000     0.0000000
    2     0.0000000     0.0000000    -0.2734177    -0.4121255     0.0000000    -0.2734177     0.4121255
    3     0.0179957     0.0000000    -0.4121240     0.0179958     0.0000000     0.4121240     0.0179958

 Projecting out rotations and translations

 Force Constants (Second Derivatives of the Energy) in [a.u.]
                             CX1         CY1         CZ1         H1X2        H1Y2    
           CX1           0.5659228
           CY1          -0.0000000   0.5659228
           CZ1          -0.0000000  -0.0000000   0.5658735
           H1X2         -0.2371133   0.0000000  -0.1352484   0.2540576
           H1Y2         -0.0000000  -0.0458481   0.0000000   0.0000000   0.0457881
           H1Z2         -0.1352449  -0.0000000  -0.1414684   0.1472709  -0.0000000
           H2X3         -0.2371133   0.0000000   0.1352484  -0.0192006   0.0000000
           H2Y3          0.0000000  -0.0458481   0.0000000  -0.0000000  -0.0021962
           H2Z3          0.1352449  -0.0000000  -0.1414684  -0.0172027   0.0000000
           H3X4         -0.0458481   0.0000000   0.0000000   0.0011281  -0.0239921
           H3Y4          0.0000000  -0.2371133  -0.1352484   0.0003402   0.0011281
           H3Z4          0.0000000  -0.1352449  -0.1414684   0.0025901  -0.0146143
           H4X5         -0.0458481   0.0000000   0.0000000   0.0011281   0.0239921
           H4Y5         -0.0000000  -0.2371133   0.1352484  -0.0003402   0.0011281
           H4Z5         -0.0000000   0.1352449  -0.1414684   0.0025901   0.0146143
                             H1Z2        H2X3        H2Y3        H2Z3        H3X4    
           H1Z2          0.1499163
           H2X3          0.0172027   0.2540576
           H2Y3          0.0000000  -0.0000000   0.0457881
           H2Z3          0.0129481  -0.1472709  -0.0000000   0.1499163
           H3X4         -0.0146143   0.0011281   0.0239921   0.0146143   0.0457881
           H3Y4          0.0025901  -0.0003402   0.0011281   0.0025901  -0.0000000
           H3Z4         -0.0106980  -0.0025901  -0.0146143  -0.0106980  -0.0000000
           H4X5         -0.0146143   0.0011281  -0.0239921   0.0146143  -0.0021962
           H4Y5         -0.0025901   0.0003402   0.0011281  -0.0025901  -0.0000000
           H4Z5         -0.0106980  -0.0025901   0.0146143  -0.0106980   0.0000000
                             H3Y4        H3Z4        H4X5        H4Y5        H4Z5    
           H3Y4          0.2540576
           H3Z4          0.1472709   0.1499163
           H4X5          0.0000000   0.0000000   0.0457881
           H4Y5         -0.0192006   0.0172027   0.0000000   0.2540576
           H4Z5         -0.0172027   0.0129481  -0.0000000  -0.1472709   0.1499163


 Atomic Masses
   1-  5   12.000000    1.007825    1.007825    1.007825    1.007825

 Mass weighted Second Derivative Matrix
                             CX1         CY1         CZ1         H1X2        H1Y2    
           CX1           0.0471602
           CY1          -0.0000000   0.0471602
           CZ1          -0.0000000  -0.0000000   0.0471561
           H1X2         -0.0681825   0.0000000  -0.0388910   0.2520851
           H1Y2         -0.0000000  -0.0131837   0.0000000   0.0000000   0.0454326
           H1Z2         -0.0388900  -0.0000000  -0.0406796   0.1461274  -0.0000000
           H2X3         -0.0681825   0.0000000   0.0388910  -0.0190515   0.0000000
           H2Y3          0.0000000  -0.0131837   0.0000000  -0.0000000  -0.0021791
           H2Z3          0.0388900  -0.0000000  -0.0406796  -0.0170692   0.0000000
           H3X4         -0.0131837   0.0000000   0.0000000   0.0011194  -0.0238059
           H3Y4          0.0000000  -0.0681825  -0.0388910   0.0003376   0.0011194
           H3Z4          0.0000000  -0.0388900  -0.0406796   0.0025700  -0.0145009
           H4X5         -0.0131837   0.0000000   0.0000000   0.0011194   0.0238059
           H4Y5         -0.0000000  -0.0681825   0.0388910  -0.0003376   0.0011194
           H4Z5         -0.0000000   0.0388900  -0.0406796   0.0025700   0.0145009
                             H1Z2        H2X3        H2Y3        H2Z3        H3X4    
           H1Z2          0.1487523
           H2X3          0.0170692   0.2520851
           H2Y3          0.0000000  -0.0000000   0.0454326
           H2Z3          0.0128476  -0.1461274  -0.0000000   0.1487523
           H3X4         -0.0145009   0.0011194   0.0238059   0.0145009   0.0454326
           H3Y4          0.0025700  -0.0003376   0.0011194   0.0025700  -0.0000000
           H3Z4         -0.0106150  -0.0025700  -0.0145009  -0.0106150  -0.0000000
           H4X5         -0.0145009   0.0011194  -0.0238059   0.0145009  -0.0021791
           H4Y5         -0.0025700   0.0003376   0.0011194  -0.0025700  -0.0000000
           H4Z5         -0.0106150  -0.0025700   0.0145009  -0.0106150   0.0000000
                             H3Y4        H3Z4        H4X5        H4Y5        H4Z5    
           H3Y4          0.2520851
           H3Z4          0.1461274   0.1487523
           H4X5          0.0000000   0.0000000   0.0454326
           H4Y5         -0.0190515   0.0170692   0.0000000   0.2520851
           H4Z5         -0.0170692   0.0128476  -0.0000000  -0.1461274   0.1487523


 Mass Weighted 2nd Derivative Matrix Eigenvalues
   1- 10    0.000000    0.000000    0.000000    0.000000    0.000000    0.000000    0.068935    0.068949    0.068949    0.095209
  11- 15    0.095223    0.358082    0.390402    0.390403    0.390403

 Mass Weighted 2nd Derivative Matrix Eigenvectors
              1             2             3             4             5             6             7             8
    1     0.7991732    -0.2596115     0.1711229     0.1123977    -0.0147713    -0.0180342     0.0000000     0.0000000
    2    -0.1792117     0.0899294     0.5802562     0.5643774     0.0204299    -0.2295541     0.0000000    -0.3983616
    3     0.0749316     0.1104310    -0.4548008     0.4995085     0.5123779     0.1088221     0.3983691     0.0000000
    4     0.1240038    -0.4037425     0.0139075     0.0946846    -0.0135765     0.0117581     0.3036877     0.0000000
    5    -0.0312520     0.1116251     0.0111454     0.4286236    -0.4622777     0.1639702     0.0000000     0.5583959
    6     0.1738826     0.4965814    -0.0813371     0.0569199     0.1616345     0.0075172    -0.3436558     0.0000000
    7     0.1240038    -0.4037425     0.0139075     0.0946846    -0.0135765     0.0117581    -0.3036877     0.0000000
    8    -0.0882479    -0.0042275     0.4505781     0.0303147     0.3071007     0.3630566     0.0000000     0.5583959
    9    -0.1304519    -0.4325751    -0.1822676     0.2325976     0.1353422     0.0555566    -0.3436558     0.0000000
   10     0.3676987     0.3111967    -0.1344402     0.1696161    -0.3796742    -0.1217540     0.0000000     0.0000000
   11    -0.0441220    -0.0015753     0.1054575     0.0976467     0.0894297    -0.3965640     0.3036877     0.1289029
   12     0.0106648     0.0710878    -0.0431282     0.2379713     0.0303886     0.4982821    -0.3436558    -0.3036974
   13     0.3107029     0.1953441     0.3049925    -0.2286928     0.3897042     0.0773324     0.0000000     0.0000000
   14    -0.0441220    -0.0015753     0.1054575     0.0976467     0.0894297    -0.3965640    -0.3036877     0.1289029
   15     0.0327659    -0.0070815    -0.2204765     0.0515463     0.2665880    -0.4352083    -0.3436558     0.3036974
              9            10            11            12            13            14            15
    1    -0.3983616     0.0000000     0.0000000     0.0000000     0.0000000     0.0000000    -0.3045855
    2     0.0000000     0.0000000     0.0000000     0.0000000     0.0000000    -0.3045855     0.0000000
    3     0.0000000     0.0000000     0.0000000    -0.0000000    -0.3045758     0.0000000     0.0000000
    4     0.1289029    -0.2886691     0.0000000     0.4082526     0.3972075     0.0000000     0.5436156
    5     0.0000000     0.0000000     0.5000000     0.0000000     0.0000000    -0.0181101     0.0000000
    6    -0.3036974     0.4082525     0.0000000     0.2886691     0.2627443     0.0000000     0.3972001
    7     0.1289029     0.2886691     0.0000000    -0.4082526    -0.3972075     0.0000000     0.5436156
    8     0.0000000     0.0000000    -0.5000000     0.0000000     0.0000000    -0.0181101     0.0000000
    9     0.3036974     0.4082525     0.0000000     0.2886691     0.2627443     0.0000000    -0.3972001
   10     0.5583959     0.0000000    -0.5000000     0.0000000     0.0000000     0.0000000    -0.0181101
   11     0.0000000     0.2886691     0.0000000    -0.4082525     0.3972075     0.5436156     0.0000000
   12     0.0000000    -0.4082525     0.0000000    -0.2886691     0.2627444     0.3972001     0.0000000
   13     0.5583959     0.0000000     0.5000000     0.0000000     0.0000000     0.0000000    -0.0181101
   14     0.0000000    -0.2886691     0.0000000     0.4082525    -0.3972075     0.5436156     0.0000000
   15     0.0000000    -0.4082525     0.0000000    -0.2886691     0.2627444    -0.3972001     0.0000000

   Low Vibration      Wavenumber
        Nr             [1/cm] 
        1                0.00
        2                0.00
        3                0.00
        4                0.00
        5                0.00
        6                0.00

     Vibration        Wavenumber
        Nr             [1/cm] 
        1             1349.66
        2             1349.79
        3             1349.79
        4             1586.15
        5             1586.27
        6             3076.07
        7             3211.89
        8             3211.89
        9             3211.89

 FREQUENCIES * CALCULATION OF NORMAL MODES FOR MP2


 Atomic Coordinates

  Nr  Atom  Charge       X              Y              Z

   1   C     6.00    0.000000000    0.000000000   -0.000000000
   2   H1    1.00    1.674682804    0.000000000    1.184179569
   3   H2    1.00   -1.674682804    0.000000000    1.184179569
   4   H3    1.00    0.000000000   -1.674682806   -1.184179567
   5   H4    1.00    0.000000000    1.674682806   -1.184179567

 Gradient norm at reference geometry: 0.23995D-05

 Normal Modes

                              1 A1        2 B1        3 B2        4 A1        5 A2 
 Wavenumbers [cm-1]         1349.66     1349.79     1349.79     1586.15     1586.27
 Intensities [km/mol]         11.94       11.94       11.94        0.00        0.00
 Intensities [relative]       71.88       71.89       71.89        0.00        0.00
           CX1             -0.00000    -0.00000    -0.11500    -0.00000    -0.00000
           CY1              0.00000    -0.11500     0.00000     0.00000     0.00000
           CZ1              0.11500     0.00000    -0.00000     0.00000     0.00000
           H1X2             0.30251     0.00000     0.12840    -0.28755     0.00000
           H1Y2            -0.00000     0.55622    -0.00000     0.00000     0.49806
           H1Z2            -0.34232    -0.00000    -0.30252     0.40666    -0.00000
           H2X3            -0.30251     0.00000     0.12840     0.28755    -0.00000
           H2Y3            -0.00000     0.55622    -0.00000    -0.00000    -0.49806
           H2Z3            -0.34232     0.00000     0.30252     0.40666    -0.00000
           H3X4             0.00000     0.00000     0.55622    -0.00000    -0.49806
           H3Y4             0.30251     0.12840    -0.00000     0.28755    -0.00000
           H3Z4            -0.34232    -0.30252     0.00000    -0.40666     0.00000
           H4X5             0.00000     0.00000     0.55622     0.00000     0.49806
           H4Y5            -0.30251     0.12840    -0.00000    -0.28755     0.00000
           H4Z5            -0.34232     0.30252    -0.00000    -0.40666     0.00000

                              6 A1        7 A1        8 B1        9 B2 
 Wavenumbers [cm-1]         3076.07     3211.89     3211.89     3211.89
 Intensities [km/mol]          0.00       16.61       16.61       16.61
 Intensities [relative]        0.00      100.00       99.99       99.99
           CX1              0.00000    -0.00000    -0.00000    -0.08793
           CY1              0.00000     0.00000    -0.08793     0.00000
           CZ1             -0.00000    -0.08792    -0.00000     0.00000
           H1X2             0.40666     0.39566     0.00000     0.54150
           H1Y2             0.00000     0.00000    -0.01804    -0.00000
           H1Z2             0.28755     0.26172     0.00000     0.39566
           H2X3            -0.40666    -0.39566    -0.00000     0.54150
           H2Y3            -0.00000     0.00000    -0.01804     0.00000
           H2Z3             0.28755     0.26172     0.00000    -0.39566
           H3X4            -0.00000     0.00000     0.00000    -0.01804
           H3Y4            -0.40666     0.39566     0.54150    -0.00000
           H3Z4            -0.28755     0.26172     0.39566    -0.00000
           H4X5             0.00000     0.00000     0.00000    -0.01804
           H4Y5             0.40666    -0.39566     0.54150    -0.00000
           H4Z5            -0.28755     0.26172    -0.39566     0.00000


 Normal Modes of low/zero frequencies

                                  1           2           3           4           5
 Wavenumbers [cm-1]            0.00        0.00        0.00        0.00        0.00
 Intensities [km/mol]          0.00        0.00        0.00        0.00        0.00
 Intensities [relative]        0.00        0.00        0.00        0.00        0.00
           CX1              0.23070    -0.07494     0.04940     0.03245    -0.00426
           CY1             -0.05173     0.02596     0.16751     0.16292     0.00590
           CZ1              0.02163     0.03188    -0.13129     0.14420     0.14791
           H1X2             0.12352    -0.40217     0.01385     0.09432    -0.01352
           H1Y2            -0.03113     0.11119     0.01110     0.42696    -0.46048
           H1Z2             0.17321     0.49465    -0.08102     0.05670     0.16101
           H2X3             0.12352    -0.40217     0.01385     0.09432    -0.01352
           H2Y3            -0.08790    -0.00421     0.44883     0.03020     0.30591
           H2Z3            -0.12994    -0.43089    -0.18156     0.23169     0.13482
           H3X4             0.36627     0.30999    -0.13392     0.16896    -0.37820
           H3Y4            -0.04395    -0.00157     0.10505     0.09727     0.08908
           H3Z4             0.01062     0.07081    -0.04296     0.23705     0.03027
           H4X5             0.30949     0.19458     0.30381    -0.22780     0.38819
           H4Y5            -0.04395    -0.00157     0.10505     0.09727     0.08908
           H4Z5             0.03264    -0.00705    -0.21962     0.05135     0.26555

                                  6
 Wavenumbers [cm-1]            0.00
 Intensities [km/mol]          0.00
 Intensities [relative]        0.00
           CX1             -0.00521
           CY1             -0.06627
           CZ1              0.03141
           H1X2             0.01171
           H1Y2             0.16333
           H1Z2             0.00749
           H2X3             0.01171
           H2Y3             0.36164
           H2Z3             0.05534
           H3X4            -0.12128
           H3Y4            -0.39502
           H3Z4             0.49634
           H4X5             0.07703
           H4Y5            -0.39502
           H4Z5            -0.43352


 Frequencies dumped to record   5400.2

 Zero point energy:  0.04541164 [H]     9966.70 [1/CM]      119.23 [KJ/MOL]
 Frequency information read from record  5400.2

 Recomputing wavefunction at initial geometry


 **********************************************************************************************************************************
 DATASETS  * FILE   NREC   LENGTH (MB)   RECORD NAMES
              1      20       29.12       500      610      700      900      950      970     1000      129      960     1100   
                                          VAR    BASINP    GEOM    SYMINP    ZMAT    AOBASIS   BASIS     P2S    ABASIS      S 
                                         1400     1410     1200     1210     1080     1600     1650     1700     1380     5200   
                                           T        V       H0       H01     AOSYM     SMH    MOLCAS    OPER     JKOP      MP2  

              2       9        0.58       700     1000      520     2100     4100     9001     5300     5450     5400   
                                         GEOM     BASIS   MCVARS     RHF     CPHF    DEN_MP2   HESS     NMOD     FREQ   

 PROGRAMS   *        TOTAL      FREQ      OPTG       MP2    HF-SCF       INT
 CPU TIMES  *         5.26      3.09      1.60      0.04      0.01      0.30
 REAL TIME  *         6.23 SEC
 DISK USED  *        89.69 MB (local),        1.15 GB (total)
 SF USED    *         1.03 MB
 GA USED    *         0.00 MB       (max)       0.00 MB       (current)
 **********************************************************************************************************************************

 Dump information in style MOLDEN to ch4_molden.dat                                                                  

 Molecular orbitals read from record     2100.2  Type=RHF/CANONICAL (state 1.1)
 Occupation numbers read from record     2100.2  Type=RHF/RHF (state 1.1)
 Orbital energies read from record       2100.2  Type=RHF/CANONICAL (state 1.1)
 Redundancy group numbers read from rec  2100.2  Type=RHF/RHF (state 1.1)

 DUMP ORBITAL  1.1 AS ORBITAL    1  occ=    2.0000  eig=  -11.2049  GROUP=   2
 DUMP ORBITAL  2.1 AS ORBITAL    2  occ=    2.0000  eig=   -0.9443  GROUP=   2
 DUMP ORBITAL  1.3 AS ORBITAL    3  occ=    2.0000  eig=   -0.5457  GROUP=   2
 DUMP ORBITAL  3.1 AS ORBITAL    4  occ=    2.0000  eig=   -0.5457  GROUP=   2
 DUMP ORBITAL  1.2 AS ORBITAL    5  occ=    2.0000  eig=   -0.5457  GROUP=   2

 Total charge:      10.000000
 Frequency information read from record  5400.2

 **********************************************************************************************************************************

 MP2/cc-pVTZ energy=    -40.411666529968

       OPTG(MP2)             MP2          HF-SCF
    -40.41166654    -40.41166486    -40.21342193
 **********************************************************************************************************************************
 Molpro calculation terminated
