 Entering Gaussian System, Link 0=g16
 Input=c5h10.com
 Output=c5h10.log
 Initial command:
 /usr/local/g16/l1.exe "/scratch/ddi/Gau-3782908.inp" -scrdir="/scratch/ddi/"
 Entering Link 1 = /usr/local/g16/l1.exe PID=   3782910.
  
 Copyright (c) 1988,1990,1992,1993,1995,1998,2003,2009,2016,
            Gaussian, Inc.  All Rights Reserved.
  
 This is part of the Gaussian(R) 16 program.  It is based on
 the Gaussian(R) 09 system (copyright 2009, Gaussian, Inc.),
 the Gaussian(R) 03 system (copyright 2003, Gaussian, Inc.),
 the Gaussian(R) 98 system (copyright 1998, Gaussian, Inc.),
 the Gaussian(R) 94 system (copyright 1995, Gaussian, Inc.),
 the Gaussian 92(TM) system (copyright 1992, Gaussian, Inc.),
 the Gaussian 90(TM) system (copyright 1990, Gaussian, Inc.),
 the Gaussian 88(TM) system (copyright 1988, Gaussian, Inc.),
 the Gaussian 86(TM) system (copyright 1986, Carnegie Mellon
 University), and the Gaussian 82(TM) system (copyright 1983,
 Carnegie Mellon University). Gaussian is a federally registered
 trademark of Gaussian, Inc.
  
 This software contains proprietary and confidential information,
 including trade secrets, belonging to Gaussian, Inc.
  
 This software is provided under written license and may be
 used, copied, transmitted, or stored only in accord with that
 written license.
  
 The following legend is applicable only to US Government
 contracts under FAR:
  
                    RESTRICTED RIGHTS LEGEND
  
 Use, reproduction and disclosure by the US Government is
 subject to restrictions as set forth in subparagraphs (a)
 and (c) of the Commercial Computer Software - Restricted
 Rights clause in FAR 52.227-19.
  
 Gaussian, Inc.
 340 Quinnipiac St., Bldg. 40, Wallingford CT 06492
  
  
 ---------------------------------------------------------------
 Warning -- This program may not be used in any manner that
 competes with the business of Gaussian, Inc. or will provide
 assistance to any competitor of Gaussian, Inc.  The licensee
 of this program is prohibited from giving any competitor of
 Gaussian, Inc. access to this program.  By using this program,
 the user acknowledges that Gaussian, Inc. is engaged in the
 business of creating and licensing software in the field of
 computational chemistry and represents and warrants to the
 licensee that it is not a competitor of Gaussian, Inc. and that
 it will not use this program in any manner prohibited above.
 ---------------------------------------------------------------
  

 Cite this work as:
 Gaussian 16, Revision A.03,
 M. J. Frisch, G. W. Trucks, H. B. Schlegel, G. E. Scuseria, 
 M. A. Robb, J. R. Cheeseman, G. Scalmani, V. Barone, 
 G. A. Petersson, H. Nakatsuji, X. Li, M. Caricato, A. V. Marenich, 
 J. Bloino, B. G. Janesko, R. Gomperts, B. Mennucci, H. P. Hratchian, 
 J. V. Ortiz, A. F. Izmaylov, J. L. Sonnenberg, D. Williams-Young, 
 F. Ding, F. Lipparini, F. Egidi, J. Goings, B. Peng, A. Petrone, 
 T. Henderson, D. Ranasinghe, V. G. Zakrzewski, J. Gao, N. Rega, 
 G. Zheng, W. Liang, M. Hada, M. Ehara, K. Toyota, R. Fukuda, 
 J. Hasegawa, M. Ishida, T. Nakajima, Y. Honda, O. Kitao, H. Nakai, 
 T. Vreven, K. Throssell, J. A. Montgomery, Jr., J. E. Peralta, 
 F. Ogliaro, M. J. Bearpark, J. J. Heyd, E. N. Brothers, K. N. Kudin, 
 V. N. Staroverov, T. A. Keith, R. Kobayashi, J. Normand, 
 K. Raghavachari, A. P. Rendell, J. C. Burant, S. S. Iyengar, 
 J. Tomasi, M. Cossi, J. M. Millam, M. Klene, C. Adamo, R. Cammi, 
 J. W. Ochterski, R. L. Martin, K. Morokuma, O. Farkas, 
 J. B. Foresman, and D. J. Fox, Gaussian, Inc., Wallingford CT, 2016.
 
 ******************************************
 Gaussian 16:  ES64L-G16RevA.03 25-Dec-2016
                10-Oct-2022 
 ******************************************
 %nprocshared=12
 Will use up to   12 processors via shared memory.
 %chk=c5h10.chk
 -------------------------------------------------------------------
 #p opt=(tight,modredundant) freq hf/6-311++g(d,p) geom=connectivity
 -------------------------------------------------------------------
 1/7=10,18=120,19=15,38=1,57=2/1,3;
 2/9=110,12=2,17=6,18=5,40=1/2;
 3/5=4,6=6,7=1111,11=9,25=1,30=1,71=1/1,2,3;
 4//1;
 5/5=2,38=5/2;
 6/7=2,8=2,9=2,10=2,28=1/1;
 7//1,2,3,16;
 1/7=10,18=20,19=15/3(2);
 2/9=110/2;
 99//99;
 2/9=110/2;
 3/5=4,6=6,7=1111,11=9,25=1,30=1,71=1/1,2,3;
 4/5=5,16=3,69=1/1;
 5/5=2,38=5/2;
 7//1,2,3,16;
 1/7=10,18=20,19=15/3(-5);
 2/9=110/2;
 6/7=2,8=2,9=2,10=2,19=2,28=1/1;
 99/9=1/99;
 Leave Link    1 at Mon Oct 10 14:24:24 2022, MaxMem=           0 cpu:               0.3 elap:               0.0
 (Enter /usr/local/g16/l101.exe)
 -------------------
 Title Card Required
 -------------------
 Symbolic Z-matrix:
 Charge =  0 Multiplicity = 1
 C
 C                    1    B1
 C                    2    B2       1    A1
 C                    3    B3       2    A2       1    D1       0
 H                    1    B4       4    A3       3    D2       0
 H                    1    B5       4    A4       3    D3       0
 H                    2    B6       1    A5       4    D4       0
 H                    2    B7       1    A6       4    D5       0
 H                    3    B8       2    A7       1    D6       0
 H                    3    B9       2    A8       1    D7       0
 H                    4    B10      3    A9       2    D8       0
 H                    4    B11      3    A10      2    D9       0
 C                    2    B12      1    A11      4    D10      0
 H                    13   B13      2    A12      1    D11      0
 H                    13   B14      2    A13      1    D12      0
       Variables:
  B1                    2.2993                   
  B2                    1.55603                  
  B3                    1.55603                  
  B4                    1.07                     
  B5                    1.07                     
  B6                    1.07                     
  B7                    1.07                     
  B8                    1.07                     
  B9                    1.07                     
  B10                   1.07                     
  B11                   1.07                     
  B12                   1.5143                   
  B13                   1.07                     
  B14                   1.07                     
  A1                   74.72464                  
  A2                  102.38965                  
  A3                  111.38019                  
  A4                  120.58261                  
  A5                   94.0534                   
  A6                  150.54101                  
  A7                  106.26491                  
  A8                  116.69836                  
  A9                  113.26994                  
  A10                 108.69099                  
  A11                  36.03641                  
  A12                 112.84937                  
  A13                 113.30628                  
  D1                  -21.79035                  
  D2                 -175.2566                   
  D3                   57.35309                  
  D4                  129.52337                  
  D5                  -89.19605                  
  D6                  101.11661                  
  D7                 -137.35033                  
  D8                  146.93793                  
  D9                  -92.09124                  
  D10                -120.93019                  
  D11                 106.57779                  
  D12                -130.90491                  
 
 The following ModRedundant input section has been read:
 D      13       2       3       4 F                                           
 
 ITRead=  0  0  0  0  0  0  0  0  0  0  0  0  0  0  0
 MicOpt= -1 -1 -1 -1 -1 -1 -1 -1 -1 -1 -1 -1 -1 -1 -1
 NAtoms=     15 NQM=       15 NQMF=       0 NMMI=      0 NMMIF=      0
                NMic=       0 NMicF=      0.
                    Isotopes and Nuclear Properties:
 (Nuclear quadrupole moments (NQMom) in fm**2, nuclear magnetic moments (NMagM)
  in nuclear magnetons)

  Atom         1           2           3           4           5           6           7           8           9          10
 IAtWgt=          12          12          12          12           1           1           1           1           1           1
 AtmWgt=  12.0000000  12.0000000  12.0000000  12.0000000   1.0078250   1.0078250   1.0078250   1.0078250   1.0078250   1.0078250
 NucSpn=           0           0           0           0           1           1           1           1           1           1
 AtZEff=  -0.0000000  -0.0000000  -0.0000000  -0.0000000  -0.0000000  -0.0000000  -0.0000000  -0.0000000  -0.0000000  -0.0000000
 NQMom=    0.0000000   0.0000000   0.0000000   0.0000000   0.0000000   0.0000000   0.0000000   0.0000000   0.0000000   0.0000000
 NMagM=    0.0000000   0.0000000   0.0000000   0.0000000   2.7928460   2.7928460   2.7928460   2.7928460   2.7928460   2.7928460
 AtZNuc=   6.0000000   6.0000000   6.0000000   6.0000000   1.0000000   1.0000000   1.0000000   1.0000000   1.0000000   1.0000000

  Atom        11          12          13          14          15
 IAtWgt=           1           1          12           1           1
 AtmWgt=   1.0078250   1.0078250  12.0000000   1.0078250   1.0078250
 NucSpn=           1           1           0           1           1
 AtZEff=  -0.0000000  -0.0000000  -0.0000000  -0.0000000  -0.0000000
 NQMom=    0.0000000   0.0000000   0.0000000   0.0000000   0.0000000
 NMagM=    2.7928460   2.7928460   0.0000000   2.7928460   2.7928460
 AtZNuc=   1.0000000   1.0000000   6.0000000   1.0000000   1.0000000
 Leave Link  101 at Mon Oct 10 14:24:24 2022, MaxMem=   104857600 cpu:               0.7 elap:               0.1
 (Enter /usr/local/g16/l103.exe)

 GradGradGradGradGradGradGradGradGradGradGradGradGradGradGradGradGradGrad
 Berny optimization.
 Initialization pass.
                           ----------------------------
                           !    Initial Parameters    !
                           ! (Angstroms and Degrees)  !
 --------------------------                            --------------------------
 ! Name  Definition              Value          Derivative Info.                !
 --------------------------------------------------------------------------------
 ! R1    R(1,4)                  1.6181         estimate D2E/DX2                !
 ! R2    R(1,5)                  1.07           estimate D2E/DX2                !
 ! R3    R(1,6)                  1.07           estimate D2E/DX2                !
 ! R4    R(1,13)                 1.396          estimate D2E/DX2                !
 ! R5    R(2,3)                  1.556          estimate D2E/DX2                !
 ! R6    R(2,7)                  1.07           estimate D2E/DX2                !
 ! R7    R(2,8)                  1.07           estimate D2E/DX2                !
 ! R8    R(2,13)                 1.5143         estimate D2E/DX2                !
 ! R9    R(3,4)                  1.556          estimate D2E/DX2                !
 ! R10   R(3,9)                  1.07           estimate D2E/DX2                !
 ! R11   R(3,10)                 1.07           estimate D2E/DX2                !
 ! R12   R(4,11)                 1.07           estimate D2E/DX2                !
 ! R13   R(4,12)                 1.07           estimate D2E/DX2                !
 ! R14   R(13,14)                1.07           estimate D2E/DX2                !
 ! R15   R(13,15)                1.07           estimate D2E/DX2                !
 ! A1    A(4,1,5)              111.3802         estimate D2E/DX2                !
 ! A2    A(4,1,6)              120.5826         estimate D2E/DX2                !
 ! A3    A(4,1,13)              96.1005         estimate D2E/DX2                !
 ! A4    A(5,1,6)              107.5368         estimate D2E/DX2                !
 ! A5    A(5,1,13)             116.1017         estimate D2E/DX2                !
 ! A6    A(6,1,13)             105.0315         estimate D2E/DX2                !
 ! A7    A(3,2,7)              108.691          estimate D2E/DX2                !
 ! A8    A(3,2,8)              113.2699         estimate D2E/DX2                !
 ! A9    A(3,2,13)             103.6042         estimate D2E/DX2                !
 ! A10   A(7,2,8)              108.7358         estimate D2E/DX2                !
 ! A11   A(7,2,13)             104.6844         estimate D2E/DX2                !
 ! A12   A(8,2,13)             117.2595         estimate D2E/DX2                !
 ! A13   A(2,3,4)              102.3897         estimate D2E/DX2                !
 ! A14   A(2,3,9)              106.2649         estimate D2E/DX2                !
 ! A15   A(2,3,10)             116.6984         estimate D2E/DX2                !
 ! A16   A(4,3,9)              116.6984         estimate D2E/DX2                !
 ! A17   A(4,3,10)             106.2649         estimate D2E/DX2                !
 ! A18   A(9,3,10)             108.8259         estimate D2E/DX2                !
 ! A19   A(1,4,3)               98.9488         estimate D2E/DX2                !
 ! A20   A(1,4,11)             109.5967         estimate D2E/DX2                !
 ! A21   A(1,4,12)             117.4587         estimate D2E/DX2                !
 ! A22   A(3,4,11)             113.2699         estimate D2E/DX2                !
 ! A23   A(3,4,12)             108.691          estimate D2E/DX2                !
 ! A24   A(11,4,12)            108.7358         estimate D2E/DX2                !
 ! A25   A(1,13,2)             104.3086         estimate D2E/DX2                !
 ! A26   A(1,13,14)             99.1374         estimate D2E/DX2                !
 ! A27   A(1,13,15)            119.0084         estimate D2E/DX2                !
 ! A28   A(2,13,14)            112.8494         estimate D2E/DX2                !
 ! A29   A(2,13,15)            113.3063         estimate D2E/DX2                !
 ! A30   A(14,13,15)           107.5368         estimate D2E/DX2                !
 ! D1    D(5,1,4,3)           -175.2566         estimate D2E/DX2                !
 ! D2    D(5,1,4,11)            66.0199         estimate D2E/DX2                !
 ! D3    D(5,1,4,12)           -58.6778         estimate D2E/DX2                !
 ! D4    D(6,1,4,3)             57.3531         estimate D2E/DX2                !
 ! D5    D(6,1,4,11)           -61.3704         estimate D2E/DX2                !
 ! D6    D(6,1,4,12)           173.9319         estimate D2E/DX2                !
 ! D7    D(13,1,4,3)           -54.1244         estimate D2E/DX2                !
 ! D8    D(13,1,4,11)         -172.8479         estimate D2E/DX2                !
 ! D9    D(13,1,4,12)           62.4544         estimate D2E/DX2                !
 ! D10   D(4,1,13,2)            56.1158         estimate D2E/DX2                !
 ! D11   D(4,1,13,14)          -60.4302         estimate D2E/DX2                !
 ! D12   D(4,1,13,15)         -176.4166         estimate D2E/DX2                !
 ! D13   D(5,1,13,2)           173.5437         estimate D2E/DX2                !
 ! D14   D(5,1,13,14)           56.9977         estimate D2E/DX2                !
 ! D15   D(5,1,13,15)          -58.9887         estimate D2E/DX2                !
 ! D16   D(6,1,13,2)           -67.8368         estimate D2E/DX2                !
 ! D17   D(6,1,13,14)          175.6172         estimate D2E/DX2                !
 ! D18   D(6,1,13,15)           59.6308         estimate D2E/DX2                !
 ! D19   D(7,2,3,4)           -110.9286         estimate D2E/DX2                !
 ! D20   D(7,2,3,9)             11.9783         estimate D2E/DX2                !
 ! D21   D(7,2,3,10)           133.5114         estimate D2E/DX2                !
 ! D22   D(8,2,3,4)            128.1005         estimate D2E/DX2                !
 ! D23   D(8,2,3,9)           -108.9925         estimate D2E/DX2                !
 ! D24   D(8,2,3,10)            12.5406         estimate D2E/DX2                !
 ! D25   D(13,2,3,4)             0.0            Frozen                          !
 ! D26   D(13,2,3,9)           122.907          estimate D2E/DX2                !
 ! D27   D(13,2,3,10)         -115.56           estimate D2E/DX2                !
 ! D28   D(3,2,13,1)           -37.4955         estimate D2E/DX2                !
 ! D29   D(3,2,13,14)           69.0823         estimate D2E/DX2                !
 ! D30   D(3,2,13,15)         -168.4004         estimate D2E/DX2                !
 ! D31   D(7,2,13,1)            76.3497         estimate D2E/DX2                !
 ! D32   D(7,2,13,14)         -177.0725         estimate D2E/DX2                !
 ! D33   D(7,2,13,15)          -54.5552         estimate D2E/DX2                !
 ! D34   D(8,2,13,1)          -163.0825         estimate D2E/DX2                !
 ! D35   D(8,2,13,14)          -56.5048         estimate D2E/DX2                !
 ! D36   D(8,2,13,15)           66.0126         estimate D2E/DX2                !
 ! D37   D(2,3,4,1)             31.0053         estimate D2E/DX2                !
 ! D38   D(2,3,4,11)           146.9379         estimate D2E/DX2                !
 ! D39   D(2,3,4,12)           -92.0912         estimate D2E/DX2                !
 ! D40   D(9,3,4,1)            -84.5547         estimate D2E/DX2                !
 ! D41   D(9,3,4,11)            31.378          estimate D2E/DX2                !
 ! D42   D(9,3,4,12)           152.3488         estimate D2E/DX2                !
 ! D43   D(10,3,4,1)           153.9123         estimate D2E/DX2                !
 ! D44   D(10,3,4,11)          -90.1551         estimate D2E/DX2                !
 ! D45   D(10,3,4,12)           30.8157         estimate D2E/DX2                !
 --------------------------------------------------------------------------------
 Trust Radius=3.00D-01 FncErr=1.00D-07 GrdErr=1.00D-07 EigMax=2.50D+02 EigMin=1.00D-04
 Number of steps in this run=    100 maximum allowed number of steps=    100.
 GradGradGradGradGradGradGradGradGradGradGradGradGradGradGradGradGradGrad

 Leave Link  103 at Mon Oct 10 14:24:24 2022, MaxMem=   104857600 cpu:               0.1 elap:               0.0
 (Enter /usr/local/g16/l202.exe)
                          Input orientation:                          
 ---------------------------------------------------------------------
 Center     Atomic      Atomic             Coordinates (Angstroms)
 Number     Number       Type             X           Y           Z
 ---------------------------------------------------------------------
      1          6           0        0.000000    0.000000    0.000000
      2          6           0        0.000000    0.000000    2.299301
      3          6           0        1.501059    0.000000    1.889352
      4          6           0        1.451331   -0.564165    0.440048
      5          1           0       -0.277060   -0.351916   -0.971747
      6          1           0       -0.209991    1.048604    0.035131
      7          1           0       -0.334798    1.013454    2.374935
      8          1           0       -0.183757   -0.493100    3.230958
      9          1           0        1.842332    1.007902    2.001446
     10          1           0        2.150053   -0.647650    2.440946
     11          1           0        2.204805   -0.153880   -0.199362
     12          1           0        1.576223   -1.626063    0.480976
     13          6           0       -0.703658   -0.546356    1.074768
     14          1           0       -0.496830   -1.582242    0.904292
     15          1           0       -1.766867   -0.431573    1.110990
 ---------------------------------------------------------------------
                    Distance matrix (angstroms):
                    1          2          3          4          5
     1  C    0.000000
     2  C    2.299301   0.000000
     3  C    2.413053   1.556032   0.000000
     4  C    1.618112   2.425173   1.556032   0.000000
     5  H    1.070000   3.301570   3.386951   2.241774   0.000000
     6  H    1.070000   2.504023   2.732287   2.350526   1.726197
     7  H    2.603747   1.070000   2.152499   3.069679   3.614949
     8  H    3.273531   1.070000   2.209448   3.235390   4.206112
     9  H    2.901007   2.121031   1.070000   2.249943   3.896256
    10  H    3.316684   2.249943   1.070000   2.121031   4.198191
    11  H    2.219141   3.335889   2.209448   1.070000   2.606808
    12  H    2.315145   2.904284   2.152499   1.070000   2.677408
    13  C    1.395982   1.514305   2.413053   2.246590   2.099529
    14  H    1.888935   2.167114   2.732287   2.246628   2.254224
    15  H    2.131284   2.172592   3.386951   3.290067   2.561965
                    6          7          8          9         10
     6  H    0.000000
     7  H    2.343394   0.000000
     8  H    3.548359   1.739338   0.000000
     9  H    2.842548   2.208941   2.805307   0.000000
    10  H    3.772933   2.989667   2.468740   1.740317   0.000000
    11  H    2.707802   3.799902   4.193733   2.514892   2.686639
    12  H    3.247026   3.769102   3.455943   3.052936   2.264521
    13  C    1.966838   2.063855   2.218623   3.123543   3.165496
    14  H    2.785510   2.987756   2.587977   3.658453   3.200118
    15  H    2.402553   2.395095   2.646561   3.986392   4.142189
                   11         12         13         14         15
    11  H    0.000000
    12  H    1.739338   0.000000
    13  C    3.199469   2.591566   0.000000
    14  H    3.249169   2.116286   1.070000   0.000000
    15  H    4.191457   3.605547   1.070000   1.726197   0.000000
 Stoichiometry    C5H10
 Framework group  C1[X(C5H10)]
 Deg. of freedom    39
 Full point group                 C1      NOp   1
 Largest Abelian subgroup         C1      NOp   1
 Largest concise Abelian subgroup C1      NOp   1
                         Standard orientation:                         
 ---------------------------------------------------------------------
 Center     Atomic      Atomic             Coordinates (Angstroms)
 Number     Number       Type             X           Y           Z
 ---------------------------------------------------------------------
      1          6           0        1.012531   -0.617477    0.382725
      2          6           0       -0.334292    1.216383    0.051354
      3          6           0       -1.304379    0.001424    0.114928
      4          6           0       -0.368600   -1.191626   -0.234622
      5          1           0        1.834276   -1.270122    0.173702
      6          1           0        1.074358   -0.341552    1.414686
      7          1           0       -0.192652    1.594301    1.042322
      8          1           0       -0.690998    2.009996   -0.571415
      9          1           0       -1.728713    0.007817    1.097171
     10          1           0       -2.097053   -0.018959   -0.603510
     11          1           0       -0.635545   -2.098948    0.265783
     12          1           0       -0.405267   -1.358114   -1.290954
     13          6           0        0.995577    0.591557   -0.314925
     14          1           0        1.014524    0.211054   -1.314804
     15          1           0        1.822051    1.262956   -0.209743
 ---------------------------------------------------------------------
 Rotational constants (GHZ):           6.9914416           6.5260355           4.0443193
 Leave Link  202 at Mon Oct 10 14:24:24 2022, MaxMem=   104857600 cpu:               0.0 elap:               0.0
 (Enter /usr/local/g16/l301.exe)
 Standard basis: 6-311++G(d,p) (5D, 7F)
 Ernie: Thresh=  0.10000D-02 Tol=  0.10000D-05 Strict=F.
 There are   185 symmetry adapted cartesian basis functions of A   symmetry.
 There are   180 symmetry adapted basis functions of A   symmetry.
   180 basis functions,   270 primitive gaussians,   185 cartesian basis functions
    20 alpha electrons       20 beta electrons
       nuclear repulsion energy       191.9413675622 Hartrees.
 IExCor=    0 DFT=F Ex=HF Corr=None ExCW=0 ScaHFX=  1.000000
 ScaDFX=  1.000000  1.000000  1.000000  1.000000 ScalE2=  1.000000  1.000000
 IRadAn=      5 IRanWt=     -1 IRanGd=            0 ICorTp=0 IEmpDi=  4
 NAtoms=   15 NActive=   15 NUniq=   15 SFac= 1.00D+00 NAtFMM=   60 NAOKFM=F Big=F
 Integral buffers will be    131072 words long.
 Raffenetti 1 integral format.
 Two-electron integral symmetry is turned on.
 Leave Link  301 at Mon Oct 10 14:24:24 2022, MaxMem=   104857600 cpu:               0.3 elap:               0.0
 (Enter /usr/local/g16/l302.exe)
 NPDir=0 NMtPBC=     1 NCelOv=     1 NCel=       1 NClECP=     1 NCelD=      1
         NCelK=      1 NCelE2=     1 NClLst=     1 CellRange=     0.0.
 One-electron integrals computed using PRISM.
 One-electron integral symmetry used in STVInt
 NBasis=   180 RedAO= T EigKep=  1.02D-05  NBF=   180
 NBsUse=   180 1.00D-06 EigRej= -1.00D+00 NBFU=   180
 Leave Link  302 at Mon Oct 10 14:24:24 2022, MaxMem=   104857600 cpu:               0.9 elap:               0.1
 (Enter /usr/local/g16/l303.exe)
 DipDrv:  MaxL=1.
 Leave Link  303 at Mon Oct 10 14:24:24 2022, MaxMem=   104857600 cpu:               0.2 elap:               0.0
 (Enter /usr/local/g16/l401.exe)
 ExpMin= 3.60D-02 ExpMax= 4.56D+03 ExpMxC= 6.82D+02 IAcc=3 IRadAn=         5 AccDes= 0.00D+00
 Harris functional with IExCor=  205 and IRadAn=       5 diagonalized for initial guess.
 HarFok:  IExCor=  205 AccDes= 0.00D+00 IRadAn=         5 IDoV= 1 UseB2=F ITyADJ=14
 ICtDFT=  3500011 ScaDFX=  1.000000  1.000000  1.000000  1.000000
 FoFCou: FMM=F IPFlag=           0 FMFlag=      100000 FMFlg1=           0
         NFxFlg=           0 DoJE=T BraDBF=F KetDBF=T FulRan=T
         wScrn=  0.000000 ICntrl=       500 IOpCl=  0 I1Cent=   200000004 NGrid=           0
         NMat0=    1 NMatS0=      1 NMatT0=    0 NMatD0=    1 NMtDS0=    0 NMtDT0=    0
 Petite list used in FoFCou.
 Harris En= -195.712874846760    
 JPrj=0 DoOrth=F DoCkMO=F.
 Leave Link  401 at Mon Oct 10 14:24:25 2022, MaxMem=   104857600 cpu:               3.2 elap:               0.3
 (Enter /usr/local/g16/l502.exe)
 Integral symmetry usage will be decided dynamically.
 Closed shell SCF:
 Using DIIS extrapolation, IDIIS=  1040.
 NGot=   104857600 LenX=   104784923 LenY=   104750257
 Requested convergence on RMS density matrix=1.00D-08 within 128 cycles.
 Requested convergence on MAX density matrix=1.00D-06.
 Requested convergence on             energy=1.00D-06.
 No special actions if energy rises.
 Fock matrices will be formed incrementally for  20 cycles.

 Cycle   1  Pass 0  IDiag  1:
 FoFJK:  IHMeth= 1 ICntrl=       0 DoSepK=F KAlg= 0 I1Cent=           0 FoldK=F
 IRaf= 990000000 NMat=       1 IRICut=       1 DoRegI=T DoRafI=F ISym2E= 0 IDoP0=0 IntGTp=1.
 FoFCou: FMM=F IPFlag=           0 FMFlag=      100000 FMFlg1=           0
         NFxFlg=           0 DoJE=F BraDBF=F KetDBF=F FulRan=T
         wScrn=  0.000000 ICntrl=         0 IOpCl=  0 I1Cent=           0 NGrid=           0
         NMat0=    1 NMatS0=      1 NMatT0=    0 NMatD0=    1 NMtDS0=    0 NMtDT0=    0
 Symmetry not used in FoFCou.
 E= -194.796930706514    
 DIIS: error= 4.50D-02 at cycle   1 NSaved=   1.
 NSaved= 1 IEnMin= 1 EnMin= -194.796930706514     IErMin= 1 ErrMin= 4.50D-02
 ErrMax= 4.50D-02  0.00D+00 EMaxC= 1.00D-01 BMatC= 5.51D-01 BMatP= 5.51D-01
 IDIUse=3 WtCom= 5.50D-01 WtEn= 4.50D-01
 Coeff-Com:  0.100D+01
 Coeff-En:   0.100D+01
 Coeff:      0.100D+01
 Gap=     0.580 Goal=   None    Shift=    0.000
 GapD=    0.580 DampG=2.000 DampE=0.500 DampFc=1.0000 IDamp=-1.
 RMSDP=7.74D-03 MaxDP=3.06D-01              OVMax= 1.46D-01

 Cycle   2  Pass 0  IDiag  1:
 RMSU=  5.85D-03    CP:  6.86D-01
 E= -195.068145136499     Delta-E=       -0.271214429985 Rises=F Damp=F
 DIIS: error= 2.71D-02 at cycle   2 NSaved=   2.
 NSaved= 2 IEnMin= 2 EnMin= -195.068145136499     IErMin= 2 ErrMin= 2.71D-02
 ErrMax= 2.71D-02  0.00D+00 EMaxC= 1.00D-01 BMatC= 9.89D-02 BMatP= 5.51D-01
 IDIUse=3 WtCom= 7.29D-01 WtEn= 2.71D-01
 Coeff-Com:  0.247D+00 0.753D+00
 Coeff-En:   0.000D+00 0.100D+01
 Coeff:      0.180D+00 0.820D+00
 Gap=     0.521 Goal=   None    Shift=    0.000
 RMSDP=4.78D-03 MaxDP=2.01D-01 DE=-2.71D-01 OVMax= 7.46D-02

 Cycle   3  Pass 0  IDiag  1:
 RMSU=  1.99D-03    CP:  8.68D-01  4.53D-01
 E= -195.153129955838     Delta-E=       -0.084984819339 Rises=F Damp=F
 DIIS: error= 1.13D-02 at cycle   3 NSaved=   3.
 NSaved= 3 IEnMin= 3 EnMin= -195.153129955838     IErMin= 3 ErrMin= 1.13D-02
 ErrMax= 1.13D-02  0.00D+00 EMaxC= 1.00D-01 BMatC= 1.11D-02 BMatP= 9.89D-02
 IDIUse=3 WtCom= 8.87D-01 WtEn= 1.13D-01
 Coeff-Com: -0.208D-01 0.225D+00 0.796D+00
 Coeff-En:   0.000D+00 0.000D+00 0.100D+01
 Coeff:     -0.184D-01 0.199D+00 0.819D+00
 Gap=     0.469 Goal=   None    Shift=    0.000
 RMSDP=6.80D-04 MaxDP=1.47D-02 DE=-8.50D-02 OVMax= 1.91D-02

 Cycle   4  Pass 0  IDiag  1:
 RMSU=  5.16D-04    CP:  8.51D-01  5.12D-01  1.02D+00
 E= -195.163465557148     Delta-E=       -0.010335601310 Rises=F Damp=F
 DIIS: error= 1.10D-03 at cycle   4 NSaved=   4.
 NSaved= 4 IEnMin= 4 EnMin= -195.163465557148     IErMin= 4 ErrMin= 1.10D-03
 ErrMax= 1.10D-03  0.00D+00 EMaxC= 1.00D-01 BMatC= 1.06D-04 BMatP= 1.11D-02
 IDIUse=3 WtCom= 9.89D-01 WtEn= 1.10D-02
 Coeff-Com: -0.329D-02-0.270D-01 0.286D-02 0.103D+01
 Coeff-En:   0.000D+00 0.000D+00 0.000D+00 0.100D+01
 Coeff:     -0.325D-02-0.267D-01 0.283D-02 0.103D+01
 Gap=     0.471 Goal=   None    Shift=    0.000
 RMSDP=4.36D-04 MaxDP=1.93D-02 DE=-1.03D-02 OVMax= 3.85D-03

 Cycle   5  Pass 0  IDiag  1:
 RMSU=  1.33D-04    CP:  8.67D-01  4.71D-01  1.11D+00  1.22D+00
 E= -195.163642735726     Delta-E=       -0.000177178578 Rises=F Damp=F
 DIIS: error= 1.67D-04 at cycle   5 NSaved=   5.
 NSaved= 5 IEnMin= 5 EnMin= -195.163642735726     IErMin= 5 ErrMin= 1.67D-04
 ErrMax= 1.67D-04  0.00D+00 EMaxC= 1.00D-01 BMatC= 5.50D-06 BMatP= 1.06D-04
 IDIUse=3 WtCom= 9.98D-01 WtEn= 1.67D-03
 Coeff-Com:  0.177D-02-0.904D-02-0.497D-01-0.194D+00 0.125D+01
 Coeff-En:   0.000D+00 0.000D+00 0.000D+00 0.000D+00 0.100D+01
 Coeff:      0.176D-02-0.903D-02-0.496D-01-0.194D+00 0.125D+01
 Gap=     0.471 Goal=   None    Shift=    0.000
 RMSDP=1.59D-04 MaxDP=7.19D-03 DE=-1.77D-04 OVMax= 1.37D-03

 Cycle   6  Pass 0  IDiag  1:
 RMSU=  1.52D-05    CP:  8.73D-01  4.57D-01  1.14D+00  1.35D+00  1.38D+00
 E= -195.163657016625     Delta-E=       -0.000014280899 Rises=F Damp=F
 DIIS: error= 2.11D-05 at cycle   6 NSaved=   6.
 NSaved= 6 IEnMin= 6 EnMin= -195.163657016625     IErMin= 6 ErrMin= 2.11D-05
 ErrMax= 2.11D-05  0.00D+00 EMaxC= 1.00D-01 BMatC= 8.62D-08 BMatP= 5.50D-06
 IDIUse=1 WtCom= 1.00D+00 WtEn= 0.00D+00
 Coeff-Com:  0.744D-04 0.201D-03 0.139D-03-0.154D-01-0.188D-01 0.103D+01
 Coeff:      0.744D-04 0.201D-03 0.139D-03-0.154D-01-0.188D-01 0.103D+01
 Gap=     0.472 Goal=   None    Shift=    0.000
 RMSDP=1.44D-05 MaxDP=7.11D-04 DE=-1.43D-05 OVMax= 1.77D-04

 Cycle   7  Pass 0  IDiag  1:
 RMSU=  3.32D-06    CP:  8.74D-01  4.56D-01  1.14D+00  1.36D+00  1.42D+00
                    CP:  1.29D+00
 E= -195.163657194533     Delta-E=       -0.000000177909 Rises=F Damp=F
 DIIS: error= 4.74D-06 at cycle   7 NSaved=   7.
 NSaved= 7 IEnMin= 7 EnMin= -195.163657194533     IErMin= 7 ErrMin= 4.74D-06
 ErrMax= 4.74D-06  0.00D+00 EMaxC= 1.00D-01 BMatC= 9.69D-09 BMatP= 8.62D-08
 IDIUse=1 WtCom= 1.00D+00 WtEn= 0.00D+00
 Coeff-Com: -0.106D-03 0.651D-03 0.349D-02 0.103D-01-0.894D-01 0.192D+00
 Coeff-Com:  0.883D+00
 Coeff:     -0.106D-03 0.651D-03 0.349D-02 0.103D-01-0.894D-01 0.192D+00
 Coeff:      0.883D+00
 Gap=     0.472 Goal=   None    Shift=    0.000
 RMSDP=3.39D-06 MaxDP=1.66D-04 DE=-1.78D-07 OVMax= 3.92D-05

 Initial convergence to 1.0D-05 achieved.  Increase integral accuracy.
 Cycle   8  Pass 1  IDiag  1:
 E= -195.163657209119     Delta-E=       -0.000000014585 Rises=F Damp=F
 DIIS: error= 9.65D-07 at cycle   1 NSaved=   1.
 NSaved= 1 IEnMin= 1 EnMin= -195.163657209119     IErMin= 1 ErrMin= 9.65D-07
 ErrMax= 9.65D-07  0.00D+00 EMaxC= 1.00D-01 BMatC= 3.62D-10 BMatP= 3.62D-10
 IDIUse=1 WtCom= 1.00D+00 WtEn= 0.00D+00
 Coeff-Com:  0.100D+01
 Coeff:      0.100D+01
 Gap=     0.472 Goal=   None    Shift=    0.000
 RMSDP=3.39D-06 MaxDP=1.66D-04 DE=-1.46D-08 OVMax= 8.42D-06

 Cycle   9  Pass 1  IDiag  1:
 RMSU=  6.40D-07    CP:  1.00D+00
 E= -195.163657209884     Delta-E=       -0.000000000766 Rises=F Damp=F
 DIIS: error= 4.63D-07 at cycle   2 NSaved=   2.
 NSaved= 2 IEnMin= 2 EnMin= -195.163657209884     IErMin= 2 ErrMin= 4.63D-07
 ErrMax= 4.63D-07  0.00D+00 EMaxC= 1.00D-01 BMatC= 5.83D-11 BMatP= 3.62D-10
 IDIUse=1 WtCom= 1.00D+00 WtEn= 0.00D+00
 Coeff-Com: -0.627D-01 0.106D+01
 Coeff:     -0.627D-01 0.106D+01
 Gap=     0.472 Goal=   None    Shift=    0.000
 RMSDP=2.50D-07 MaxDP=1.12D-05 DE=-7.66D-10 OVMax= 3.79D-06

 Cycle  10  Pass 1  IDiag  1:
 RMSU=  7.35D-08    CP:  1.00D+00  1.34D+00
 E= -195.163657210009     Delta-E=       -0.000000000124 Rises=F Damp=F
 DIIS: error= 1.94D-07 at cycle   3 NSaved=   3.
 NSaved= 3 IEnMin= 3 EnMin= -195.163657210009     IErMin= 3 ErrMin= 1.94D-07
 ErrMax= 1.94D-07  0.00D+00 EMaxC= 1.00D-01 BMatC= 1.11D-11 BMatP= 5.83D-11
 IDIUse=1 WtCom= 1.00D+00 WtEn= 0.00D+00
 Coeff-Com: -0.191D+00 0.185D+00 0.101D+01
 Coeff:     -0.191D+00 0.185D+00 0.101D+01
 Gap=     0.472 Goal=   None    Shift=    0.000
 RMSDP=1.16D-07 MaxDP=4.91D-06 DE=-1.24D-10 OVMax= 1.85D-06

 Cycle  11  Pass 1  IDiag  1:
 RMSU=  2.72D-08    CP:  1.00D+00  1.50D+00  1.13D+00
 E= -195.163657210032     Delta-E=       -0.000000000023 Rises=F Damp=F
 DIIS: error= 3.28D-08 at cycle   4 NSaved=   4.
 NSaved= 4 IEnMin= 4 EnMin= -195.163657210032     IErMin= 4 ErrMin= 3.28D-08
 ErrMax= 3.28D-08  0.00D+00 EMaxC= 1.00D-01 BMatC= 1.84D-13 BMatP= 1.11D-11
 IDIUse=1 WtCom= 1.00D+00 WtEn= 0.00D+00
 Coeff-Com:  0.487D-01-0.696D-01-0.266D+00 0.129D+01
 Coeff:      0.487D-01-0.696D-01-0.266D+00 0.129D+01
 Gap=     0.472 Goal=   None    Shift=    0.000
 RMSDP=1.26D-08 MaxDP=4.20D-07 DE=-2.33D-11 OVMax= 3.04D-07

 Cycle  12  Pass 1  IDiag  1:
 RMSU=  4.68D-09    CP:  1.00D+00  1.51D+00  1.20D+00  1.38D+00
 E= -195.163657210031     Delta-E=        0.000000000001 Rises=F Damp=F
 DIIS: error= 1.01D-08 at cycle   5 NSaved=   5.
 NSaved= 5 IEnMin= 4 EnMin= -195.163657210032     IErMin= 5 ErrMin= 1.01D-08
 ErrMax= 1.01D-08  0.00D+00 EMaxC= 1.00D-01 BMatC= 1.88D-14 BMatP= 1.84D-13
 IDIUse=1 WtCom= 1.00D+00 WtEn= 0.00D+00
 Coeff-Com:  0.243D-01-0.254D-01-0.128D+00 0.217D+00 0.912D+00
 Coeff:      0.243D-01-0.254D-01-0.128D+00 0.217D+00 0.912D+00
 Gap=     0.472 Goal=   None    Shift=    0.000
 RMSDP=3.17D-09 MaxDP=1.30D-07 DE= 6.82D-13 OVMax= 6.02D-08

 SCF Done:  E(RHF) =  -195.163657210     A.U. after   12 cycles
            NFock= 12  Conv=0.32D-08     -V/T= 1.9977
 KE= 1.956081444163D+02 PE=-8.380116669647D+02 EE= 2.552984977762D+02
 Leave Link  502 at Mon Oct 10 14:24:28 2022, MaxMem=   104857600 cpu:              35.6 elap:               3.0
 (Enter /usr/local/g16/l601.exe)
 Copying SCF densities to generalized density rwf, IOpCl= 0 IROHF=0.

 **********************************************************************

            Population analysis using the SCF density.

 **********************************************************************

 Orbital symmetries:
       Occupied  (A) (A) (A) (A) (A) (A) (A) (A) (A) (A) (A) (A)
                 (A) (A) (A) (A) (A) (A) (A) (A)
       Virtual   (A) (A) (A) (A) (A) (A) (A) (A) (A) (A) (A) (A)
                 (A) (A) (A) (A) (A) (A) (A) (A) (A) (A) (A) (A)
                 (A) (A) (A) (A) (A) (A) (A) (A) (A) (A) (A) (A)
                 (A) (A) (A) (A) (A) (A) (A) (A) (A) (A) (A) (A)
                 (A) (A) (A) (A) (A) (A) (A) (A) (A) (A) (A) (A)
                 (A) (A) (A) (A) (A) (A) (A) (A) (A) (A) (A) (A)
                 (A) (A) (A) (A) (A) (A) (A) (A) (A) (A) (A) (A)
                 (A) (A) (A) (A) (A) (A) (A) (A) (A) (A) (A) (A)
                 (A) (A) (A) (A) (A) (A) (A) (A) (A) (A) (A) (A)
                 (A) (A) (A) (A) (A) (A) (A) (A) (A) (A) (A) (A)
                 (A) (A) (A) (A) (A) (A) (A) (A) (A) (A) (A) (A)
                 (A) (A) (A) (A) (A) (A) (A) (A) (A) (A) (A) (A)
                 (A) (A) (A) (A) (A) (A) (A) (A) (A) (A) (A) (A)
                 (A) (A) (A) (A)
 The electronic state is 1-A.
 Alpha  occ. eigenvalues --  -11.21532 -11.20677 -11.20418 -11.20174 -11.19019
 Alpha  occ. eigenvalues --   -1.14108  -0.97722  -0.94530  -0.79477  -0.77044
 Alpha  occ. eigenvalues --   -0.65934  -0.65606  -0.59432  -0.56256  -0.50076
 Alpha  occ. eigenvalues --   -0.48476  -0.46957  -0.45834  -0.44387  -0.42666
 Alpha virt. eigenvalues --    0.04487   0.05558   0.05641   0.05784   0.07873
 Alpha virt. eigenvalues --    0.08042   0.08224   0.08415   0.09092   0.11136
 Alpha virt. eigenvalues --    0.15637   0.15711   0.16939   0.17024   0.17438
 Alpha virt. eigenvalues --    0.17970   0.18920   0.19162   0.20422   0.20657
 Alpha virt. eigenvalues --    0.21087   0.21523   0.22271   0.22588   0.22963
 Alpha virt. eigenvalues --    0.23527   0.23680   0.24905   0.25497   0.27237
 Alpha virt. eigenvalues --    0.32671   0.36947   0.37111   0.37757   0.39923
 Alpha virt. eigenvalues --    0.40384   0.40918   0.41411   0.43532   0.45085
 Alpha virt. eigenvalues --    0.45703   0.47137   0.49376   0.52113   0.53509
 Alpha virt. eigenvalues --    0.59993   0.60910   0.63180   0.64668   0.65324
 Alpha virt. eigenvalues --    0.67392   0.69980   0.74079   0.77116   0.84537
 Alpha virt. eigenvalues --    0.87030   0.88172   0.89253   0.89591   0.89704
 Alpha virt. eigenvalues --    0.91911   0.93334   0.94189   0.94903   0.95496
 Alpha virt. eigenvalues --    0.98316   0.99204   0.99691   1.00997   1.03780
 Alpha virt. eigenvalues --    1.07858   1.14455   1.19201   1.21650   1.23973
 Alpha virt. eigenvalues --    1.31630   1.35343   1.45194   1.51899   1.55087
 Alpha virt. eigenvalues --    1.63948   1.67911   1.70312   1.73534   1.79744
 Alpha virt. eigenvalues --    1.79922   1.82775   1.83279   1.85487   1.86305
 Alpha virt. eigenvalues --    1.89991   1.92129   1.94235   1.95669   1.99568
 Alpha virt. eigenvalues --    2.02137   2.05178   2.06196   2.08853   2.11704
 Alpha virt. eigenvalues --    2.14074   2.15717   2.17003   2.21526   2.24156
 Alpha virt. eigenvalues --    2.28936   2.31271   2.33827   2.38453   2.46911
 Alpha virt. eigenvalues --    2.49420   2.50551   2.54383   2.59251   2.60937
 Alpha virt. eigenvalues --    2.67019   2.70339   2.74046   2.74497   2.86429
 Alpha virt. eigenvalues --    2.89103   2.91993   2.94034   2.95072   2.97156
 Alpha virt. eigenvalues --    2.98907   3.01144   3.01854   3.04555   3.09402
 Alpha virt. eigenvalues --    3.11324   3.11941   3.13673   3.18266   3.18947
 Alpha virt. eigenvalues --    3.22938   3.26639   3.29858   3.31501   3.36095
 Alpha virt. eigenvalues --    3.48218   3.51624   3.63702   3.67730   3.97179
 Alpha virt. eigenvalues --    4.07128   4.20395   4.26913   4.36166   4.42554
 Alpha virt. eigenvalues --    4.57819   4.62611   4.67517   4.79282   4.90935
 Alpha virt. eigenvalues --   25.07280  25.10248  25.15791  25.17169  25.36403
          Condensed to atoms (all electrons):
               1          2          3          4          5          6
     1  C    5.552952   0.004852  -0.184831   0.221389   0.432974   0.493314
     2  C    0.004852   6.088446  -0.272629   0.272293   0.011445  -0.045785
     3  C   -0.184831  -0.272629   5.884620  -0.089878   0.002576   0.019553
     4  C    0.221389   0.272293  -0.089878   5.661025  -0.052021  -0.056185
     5  H    0.432974   0.011445   0.002576  -0.052021   0.538949  -0.027013
     6  H    0.493314  -0.045785   0.019553  -0.056185  -0.027013   0.575952
     7  H   -0.033660   0.482823  -0.080624   0.030382  -0.002238  -0.003674
     8  H    0.022538   0.455300  -0.081174   0.006713   0.001469  -0.001138
     9  H   -0.011778  -0.094130   0.480545  -0.074399  -0.000412  -0.000657
    10  H    0.030847  -0.085368   0.490678  -0.076085  -0.000360  -0.003701
    11  H   -0.046466   0.015665  -0.044117   0.432803  -0.003854   0.005162
    12  H   -0.015336   0.022933  -0.118381   0.491169   0.009827  -0.002092
    13  C   -0.117579  -0.330839   0.271598  -0.436749  -0.031912  -0.079631
    14  H   -0.132433  -0.158953   0.088116  -0.076276  -0.014035   0.016628
    15  H   -0.049427  -0.037187  -0.005553   0.018680  -0.000158  -0.002293
               7          8          9         10         11         12
     1  C   -0.033660   0.022538  -0.011778   0.030847  -0.046466  -0.015336
     2  C    0.482823   0.455300  -0.094130  -0.085368   0.015665   0.022933
     3  C   -0.080624  -0.081174   0.480545   0.490678  -0.044117  -0.118381
     4  C    0.030382   0.006713  -0.074399  -0.076085   0.432803   0.491169
     5  H   -0.002238   0.001469  -0.000412  -0.000360  -0.003854   0.009827
     6  H   -0.003674  -0.001138  -0.000657  -0.003701   0.005162  -0.002092
     7  H    0.551687  -0.017492  -0.015451   0.003571  -0.004628  -0.000197
     8  H   -0.017492   0.525032   0.005652  -0.003307   0.001324  -0.000794
     9  H   -0.015451   0.005652   0.555665  -0.030532  -0.000410   0.004549
    10  H    0.003571  -0.003307  -0.030532   0.564041  -0.001437  -0.014799
    11  H   -0.004628   0.001324  -0.000410  -0.001437   0.524787  -0.013896
    12  H   -0.000197  -0.000794   0.004549  -0.014799  -0.013896   0.529993
    13  C   -0.041975  -0.048018   0.047881   0.007254   0.008384  -0.035295
    14  H   -0.000350  -0.002377  -0.003554   0.001725  -0.002061  -0.017648
    15  H    0.006374  -0.004208   0.000658   0.000509   0.001997  -0.002480
              13         14         15
     1  C   -0.117579  -0.132433  -0.049427
     2  C   -0.330839  -0.158953  -0.037187
     3  C    0.271598   0.088116  -0.005553
     4  C   -0.436749  -0.076276   0.018680
     5  H   -0.031912  -0.014035  -0.000158
     6  H   -0.079631   0.016628  -0.002293
     7  H   -0.041975  -0.000350   0.006374
     8  H   -0.048018  -0.002377  -0.004208
     9  H    0.047881  -0.003554   0.000658
    10  H    0.007254   0.001725   0.000509
    11  H    0.008384  -0.002061   0.001997
    12  H   -0.035295  -0.017648  -0.002480
    13  C    5.908422   0.629638   0.416025
    14  H    0.629638   0.595851  -0.011476
    15  H    0.416025  -0.011476   0.513754
 Mulliken charges:
               1
     1  C   -0.167354
     2  C   -0.328867
     3  C   -0.360496
     4  C   -0.272862
     5  H    0.134764
     6  H    0.111562
     7  H    0.125452
     8  H    0.140481
     9  H    0.136374
    10  H    0.116964
    11  H    0.126747
    12  H    0.162448
    13  C   -0.167203
    14  H    0.087206
    15  H    0.154785
 Sum of Mulliken charges =  -0.00000
 Mulliken charges with hydrogens summed into heavy atoms:
               1
     1  C    0.078972
     2  C   -0.062934
     3  C   -0.107158
     4  C    0.016332
    13  C    0.074788
 Electronic spatial extent (au):  <R**2>=            394.8251
 Charge=              0.0000 electrons
 Dipole moment (field-independent basis, Debye):
    X=              0.0333    Y=             -0.0293    Z=             -0.0422  Tot=              0.0612
 Quadrupole moment (field-independent basis, Debye-Ang):
   XX=            -33.8970   YY=            -34.1478   ZZ=            -32.9420
   XY=             -0.0155   XZ=              0.5281   YZ=              0.8099
 Traceless Quadrupole moment (field-independent basis, Debye-Ang):
   XX=             -0.2347   YY=             -0.4855   ZZ=              0.7203
   XY=             -0.0155   XZ=              0.5281   YZ=              0.8099
 Octapole moment (field-independent basis, Debye-Ang**2):
  XXX=              1.4007  YYY=              0.1127  ZZZ=              0.1116  XYY=              0.1806
  XXY=             -0.0312  XXZ=             -0.1423  XZZ=             -1.0353  YZZ=             -0.1602
  YYZ=             -0.4850  XYZ=              0.5802
 Hexadecapole moment (field-independent basis, Debye-Ang**3):
 XXXX=           -241.9154 YYYY=           -226.4591 ZZZZ=            -82.6486 XXXY=             -0.3287
 XXXZ=              1.7275 YYYX=             -0.1009 YYYZ=             -1.8561 ZZZX=              1.0088
 ZZZY=              3.6009 XXYY=            -76.9568 XXZZ=            -53.1769 YYZZ=            -51.2968
 XXYZ=              1.1331 YYXZ=              0.6804 ZZXY=              0.0701
 N-N= 1.919413675622D+02 E-N=-8.380116654864D+02  KE= 1.956081444163D+02
 No NMR shielding tensors so no spin-rotation constants.
 Leave Link  601 at Mon Oct 10 14:24:28 2022, MaxMem=   104857600 cpu:               0.9 elap:               0.1
 (Enter /usr/local/g16/l701.exe)
 ... and contract with generalized density number  0.
 Compute integral first derivatives.
 Leave Link  701 at Mon Oct 10 14:24:28 2022, MaxMem=   104857600 cpu:               1.0 elap:               0.1
 (Enter /usr/local/g16/l702.exe)
 L702 exits ... SP integral derivatives will be done elsewhere.
 Leave Link  702 at Mon Oct 10 14:24:28 2022, MaxMem=   104857600 cpu:               0.1 elap:               0.0
 (Enter /usr/local/g16/l703.exe)
 Integral derivatives from FoFJK, PRISM(SPDF).
 Compute integral first derivatives, UseDBF=F ICtDFT=           0.
 Calling FoFJK, ICntrl=      2127 FMM=F ISym2X=0 I1Cent= 0 IOpClX= 0 NMat=1 NMatS=1 NMatT=0.
 FoFJK:  IHMeth= 1 ICntrl=    2127 DoSepK=F KAlg= 0 I1Cent=           0 FoldK=F
 IRaf=         0 NMat=       1 IRICut=       1 DoRegI=T DoRafI=F ISym2E= 0 IDoP0=0 IntGTp=1.
 FoFCou: FMM=F IPFlag=           0 FMFlag=      100000 FMFlg1=         800
         NFxFlg=           0 DoJE=F BraDBF=F KetDBF=F FulRan=T
         wScrn=  0.000000 ICntrl=      2127 IOpCl=  0 I1Cent=           0 NGrid=           0
         NMat0=    1 NMatS0=      1 NMatT0=    0 NMatD0=    1 NMtDS0=    0 NMtDT0=    0
 Symmetry not used in FoFCou.
 Leave Link  703 at Mon Oct 10 14:24:28 2022, MaxMem=   104857600 cpu:               8.2 elap:               0.7
 (Enter /usr/local/g16/l716.exe)
 Dipole        = 1.30864377D-02-1.15374242D-02-1.65937619D-02
 ***** Axes restored to original set *****
 -------------------------------------------------------------------
 Center     Atomic                   Forces (Hartrees/Bohr)
 Number     Number              X              Y              Z
 -------------------------------------------------------------------
      1        6           0.059241753   -0.001675143   -0.053739408
      2        6           0.013045630   -0.006391366   -0.001845833
      3        6          -0.011055261   -0.015765339   -0.010685973
      4        6          -0.011385054    0.080392736   -0.005380288
      5        1          -0.005908511   -0.005478062   -0.009652468
      6        1           0.025913830    0.021031226   -0.009239266
      7        1          -0.001901458    0.012275582    0.009331383
      8        1          -0.005908851   -0.006943918    0.006671978
      9        1           0.012880991    0.006971396   -0.009214396
     10        1           0.001124863   -0.002613482    0.017478966
     11        1           0.013645097    0.001351079   -0.003752471
     12        1          -0.013072876   -0.009605044   -0.008218361
     13        6          -0.050660835   -0.057845012    0.057942598
     14        1          -0.013396127   -0.022379893    0.021254632
     15        1          -0.012563190    0.006675240   -0.000951093
 -------------------------------------------------------------------
 Cartesian Forces:  Max     0.080392736 RMS     0.024584867
 Leave Link  716 at Mon Oct 10 14:24:29 2022, MaxMem=   104857600 cpu:               0.2 elap:               0.0
 (Enter /usr/local/g16/l103.exe)

 GradGradGradGradGradGradGradGradGradGradGradGradGradGradGradGradGradGrad
 Berny optimization.
 FormGI is forming the generalized inverse of G from B-inverse, IUseBI=4.
 Internal  Forces:  Max     0.110789021 RMS     0.015488319
 Search for a local minimum.
 Step number   1 out of a maximum of  100
 All quantities printed in internal units (Hartrees-Bohrs-Radians)
 RMS Force = .14729D-01 SwitMx=.10000D-02 MixMth= 1
 Mixed Optimization -- RFO/linear search
 Second derivative matrix not updated -- first step.
 ITU=  0
     Eigenvalues ---    0.01013   0.01491   0.02199   0.02769   0.04458
     Eigenvalues ---    0.04838   0.04876   0.05094   0.05317   0.05610
     Eigenvalues ---    0.05826   0.06174   0.06523   0.06664   0.06912
     Eigenvalues ---    0.07608   0.07873   0.08374   0.08712   0.10488
     Eigenvalues ---    0.11197   0.18225   0.19414   0.21381   0.25855
     Eigenvalues ---    0.26380   0.29892   0.37230   0.37230   0.37230
     Eigenvalues ---    0.37230   0.37230   0.37230   0.37230   0.37230
     Eigenvalues ---    0.37230   0.37230   0.413771000.000001000.00000
     Eigenvalues --- 1000.000001000.000001000.000001000.000001000.00000
     Eigenvalues --- 1000.000001000.000001000.000001000.000001000.00000
     Eigenvalues --- 1000.000001000.000001000.000001000.000001000.00000
     Eigenvalues --- 1000.000001000.000001000.000001000.000001000.00000
     Eigenvalues --- 1000.000001000.000001000.000001000.000001000.00000
     Eigenvalues --- 1000.000001000.000001000.000001000.000001000.00000
     Eigenvalues --- 1000.000001000.000001000.000001000.000001000.00000
     Eigenvalues --- 1000.000001000.000001000.000001000.000001000.00000
     Eigenvalues --- 1000.000001000.000001000.000001000.000001000.00000
     Eigenvalues --- 1000.000001000.000001000.000001000.000001000.00000
 RFO step:  Lambda=-6.54329548D-02 EMin= 1.01306922D-02
 Linear search not attempted -- first point.
 Maximum step size (   0.300) exceeded in Quadratic search.
    -- Step size scaled by   0.758
 Iteration  1 RMS(Cart)=  0.05687779 RMS(Int)=  0.00197741
 Iteration  2 RMS(Cart)=  0.00185340 RMS(Int)=  0.00078811
 Iteration  3 RMS(Cart)=  0.00000359 RMS(Int)=  0.00078810
 Iteration  4 RMS(Cart)=  0.00000001 RMS(Int)=  0.00078810
 Iteration  1 RMS(Cart)=  0.00010189 RMS(Int)=  0.00020469
 Iteration  2 RMS(Cart)=  0.00008352 RMS(Int)=  0.00021929
 Iteration  3 RMS(Cart)=  0.00006846 RMS(Int)=  0.00024980
 Iteration  4 RMS(Cart)=  0.00005612 RMS(Int)=  0.00028344
 Iteration  5 RMS(Cart)=  0.00004600 RMS(Int)=  0.00031497
 Iteration  6 RMS(Cart)=  0.00003771 RMS(Int)=  0.00034276
 Iteration  7 RMS(Cart)=  0.00003091 RMS(Int)=  0.00036653
 Iteration  8 RMS(Cart)=  0.00002534 RMS(Int)=  0.00038656
 Iteration  9 RMS(Cart)=  0.00002077 RMS(Int)=  0.00040329
 Iteration 10 RMS(Cart)=  0.00001703 RMS(Int)=  0.00041719
 Iteration 11 RMS(Cart)=  0.00001396 RMS(Int)=  0.00042870
 Iteration 12 RMS(Cart)=  0.00001144 RMS(Int)=  0.00043820
 Iteration 13 RMS(Cart)=  0.00000938 RMS(Int)=  0.00044603
 Iteration 14 RMS(Cart)=  0.00000769 RMS(Int)=  0.00045248
 Iteration 15 RMS(Cart)=  0.00000630 RMS(Int)=  0.00045778
 Iteration 16 RMS(Cart)=  0.00000517 RMS(Int)=  0.00046214
 Iteration 17 RMS(Cart)=  0.00000423 RMS(Int)=  0.00046572
 Iteration 18 RMS(Cart)=  0.00000347 RMS(Int)=  0.00046866
 Iteration 19 RMS(Cart)=  0.00000284 RMS(Int)=  0.00047107
 Iteration 20 RMS(Cart)=  0.00000233 RMS(Int)=  0.00047305
 Iteration 21 RMS(Cart)=  0.00000191 RMS(Int)=  0.00047467
 Iteration 22 RMS(Cart)=  0.00000157 RMS(Int)=  0.00047600
 Iteration 23 RMS(Cart)=  0.00000128 RMS(Int)=  0.00047710
 Iteration 24 RMS(Cart)=  0.00000105 RMS(Int)=  0.00047799
 Iteration 25 RMS(Cart)=  0.00000086 RMS(Int)=  0.00047873
 ITry= 1 IFail=0 DXMaxC= 2.44D-01 DCOld= 1.00D+10 DXMaxT= 3.00D-01 DXLimC= 3.00D+00 Rises=F
 Variable       Old X    -DE/DX   Delta X   Delta X   Delta X     New X
                                 (Linear)    (Quad)   (Total)
    R1        3.05779  -0.02849   0.00000  -0.07462  -0.07648   2.98131
    R2        2.02201   0.01210   0.00000   0.02096   0.02096   2.04296
    R3        2.02201   0.01522   0.00000   0.02637   0.02637   2.04837
    R4        2.63802   0.11079   0.00000   0.16698   0.16793   2.80596
    R5        2.94047   0.01214   0.00000   0.01983   0.02049   2.96096
    R6        2.02201   0.01288   0.00000   0.02231   0.02231   2.04432
    R7        2.02201   0.01002   0.00000   0.01736   0.01736   2.03937
    R8        2.86162   0.01393   0.00000   0.02762   0.02766   2.88928
    R9        2.94047  -0.00126   0.00000  -0.00557  -0.00528   2.93519
   R10        2.02201   0.00971   0.00000   0.01682   0.01682   2.03883
   R11        2.02201   0.01127   0.00000   0.01953   0.01953   2.04154
   R12        2.02201   0.01237   0.00000   0.02143   0.02143   2.04343
   R13        2.02201   0.00769   0.00000   0.01332   0.01332   2.03533
   R14        2.02201   0.01569   0.00000   0.02718   0.02718   2.04919
   R15        2.02201   0.01317   0.00000   0.02281   0.02281   2.04482
    A1        1.94395   0.00465   0.00000   0.02131   0.02077   1.96472
    A2        2.10456  -0.01964   0.00000  -0.11184  -0.11303   1.99153
    A3        1.67727   0.00461   0.00000   0.04119   0.04078   1.71805
    A4        1.87687   0.00231   0.00000   0.00346   0.00120   1.87807
    A5        2.02636  -0.00065   0.00000  -0.00978  -0.01016   2.01620
    A6        1.83315   0.00874   0.00000   0.05860   0.06148   1.89462
    A7        1.89702  -0.01142   0.00000  -0.04903  -0.04778   1.84924
    A8        1.97693   0.00932   0.00000   0.04426   0.04346   2.02039
    A9        1.80823   0.00635   0.00000   0.01572   0.01568   1.82391
   A10        1.89780  -0.00106   0.00000  -0.01185  -0.01141   1.88639
   A11        1.82709   0.01078   0.00000   0.01344   0.01368   1.84077
   A12        2.04656  -0.01420   0.00000  -0.01788  -0.01884   2.02772
   A13        1.78704   0.01086   0.00000   0.02355   0.02415   1.81119
   A14        1.85467   0.00990   0.00000   0.05046   0.05009   1.90477
   A15        2.03677  -0.01565   0.00000  -0.05826  -0.05739   1.97938
   A16        2.03677  -0.02054   0.00000  -0.04757  -0.04844   1.98833
   A17        1.85467   0.01352   0.00000   0.03491   0.03543   1.89011
   A18        1.89937  -0.00001   0.00000  -0.00861  -0.00787   1.89150
   A19        1.72698   0.01120   0.00000   0.02072   0.02030   1.74728
   A20        1.91282   0.00277   0.00000   0.03229   0.03286   1.94569
   A21        2.05004  -0.01395   0.00000  -0.07088  -0.07180   1.97824
   A22        1.97693   0.00139   0.00000   0.01169   0.01085   1.98778
   A23        1.89702  -0.00379   0.00000   0.00356   0.00350   1.90052
   A24        1.89780   0.00274   0.00000   0.00385   0.00407   1.90187
   A25        1.82053  -0.02563   0.00000  -0.03023  -0.03127   1.78926
   A26        1.73027   0.02002   0.00000   0.07915   0.08013   1.81040
   A27        2.07709   0.00877   0.00000   0.00957   0.00880   2.08588
   A28        1.96959  -0.00386   0.00000  -0.04266  -0.04182   1.92777
   A29        1.97757   0.00918   0.00000   0.01041   0.01111   1.98868
   A30        1.87687  -0.00758   0.00000  -0.02227  -0.02388   1.85299
    D1       -3.05880   0.00498   0.00000   0.02121   0.02213  -3.03667
    D2        1.15227  -0.00315   0.00000  -0.01425  -0.01438   1.13788
    D3       -1.02412   0.00171   0.00000   0.00827   0.00849  -1.01563
    D4        1.00100   0.01522   0.00000   0.09941   0.09853   1.09953
    D5       -1.07112   0.00710   0.00000   0.06396   0.06202  -1.00910
    D6        3.03568   0.01195   0.00000   0.08648   0.08489   3.12057
    D7       -0.94465   0.00833   0.00000   0.03933   0.04128  -0.90337
    D8       -3.01676   0.00021   0.00000   0.00387   0.00477  -3.01199
    D9        1.09003   0.00506   0.00000   0.02639   0.02764   1.11767
   D10        0.97941  -0.00823   0.00000  -0.06172  -0.06143   0.91798
   D11       -1.05471  -0.00352   0.00000  -0.03542  -0.03455  -1.08925
   D12       -3.07905  -0.01207   0.00000  -0.06739  -0.06766   3.13648
   D13        3.02891  -0.00022   0.00000  -0.01532  -0.01564   3.01327
   D14        0.99480   0.00449   0.00000   0.01098   0.01124   1.00604
   D15       -1.02955  -0.00405   0.00000  -0.02099  -0.02187  -1.05142
   D16       -1.18398   0.00846   0.00000   0.02470   0.02443  -1.15955
   D17        3.06510   0.01317   0.00000   0.05100   0.05131   3.11641
   D18        1.04075   0.00463   0.00000   0.01903   0.01820   1.05895
   D19       -1.93607   0.00954   0.00000  -0.00322  -0.00351  -1.93958
   D20        0.20906  -0.00399   0.00000  -0.02294  -0.02279   0.18627
   D21        2.33021  -0.00657   0.00000  -0.03320  -0.03351   2.29670
   D22        2.23578   0.01284   0.00000   0.01749   0.01761   2.25339
   D23       -1.90228  -0.00069   0.00000  -0.00224  -0.00167  -1.90395
   D24        0.21887  -0.00326   0.00000  -0.01250  -0.01240   0.20648
   D25        0.00000   0.02011   0.00000   0.00000  -0.00001  -0.00001
   D26        2.14513   0.00658   0.00000  -0.01972  -0.01930   2.12583
   D27       -2.01690   0.00401   0.00000  -0.02998  -0.03002  -2.04692
   D28       -0.65442   0.00752   0.00000   0.07421   0.07171  -0.58271
   D29        1.20571   0.01590   0.00000   0.13323   0.13169   1.33740
   D30       -2.93914   0.00987   0.00000   0.07828   0.07714  -2.86200
   D31        1.33255   0.00155   0.00000   0.03149   0.03041   1.36296
   D32       -3.09050   0.00992   0.00000   0.09051   0.09038  -3.00012
   D33       -0.95217   0.00389   0.00000   0.03556   0.03584  -0.91633
   D34       -2.84633  -0.00033   0.00000   0.01558   0.01463  -2.83170
   D35       -0.98619   0.00804   0.00000   0.07459   0.07460  -0.91159
   D36        1.15214   0.00201   0.00000   0.01964   0.02006   1.17219
   D37        0.54114  -0.00030   0.00000   0.00117  -0.00176   0.53939
   D38        2.56455   0.00964   0.00000   0.05443   0.05291   2.61746
   D39       -1.60730   0.01136   0.00000   0.06946   0.06784  -1.53945
   D40       -1.47576  -0.00964   0.00000  -0.05295  -0.05399  -1.52975
   D41        0.54765   0.00031   0.00000   0.00031   0.00068   0.54833
   D42        2.65899   0.00203   0.00000   0.01534   0.01561   2.67460
   D43        2.68628  -0.00665   0.00000  -0.03769  -0.03870   2.64758
   D44       -1.57350   0.00329   0.00000   0.01557   0.01597  -1.55753
   D45        0.53784   0.00501   0.00000   0.03059   0.03091   0.56874
         Item               Value     Threshold  Converged?
 Maximum Force            0.102737     0.000015     NO 
 RMS     Force            0.014729     0.000010     NO 
 Maximum Displacement     0.243749     0.000060     NO 
 RMS     Displacement     0.057315     0.000040     NO 
 Predicted change in Energy=-3.705669D-02
 Lowest energy point so far.  Saving SCF results.
 GradGradGradGradGradGradGradGradGradGradGradGradGradGradGradGradGradGrad

 Leave Link  103 at Mon Oct 10 14:24:29 2022, MaxMem=   104857600 cpu:               0.4 elap:               0.1
 (Enter /usr/local/g16/l202.exe)
                          Input orientation:                          
 ---------------------------------------------------------------------
 Center     Atomic      Atomic             Coordinates (Angstroms)
 Number     Number       Type             X           Y           Z
 ---------------------------------------------------------------------
      1          6           0        0.033802   -0.016284   -0.028488
      2          6           0       -0.006812   -0.034052    2.321943
      3          6           0        1.494462    0.015655    1.876080
      4          6           0        1.464141   -0.512145    0.415582
      5          1           0       -0.243105   -0.374145   -1.010329
      6          1           0       -0.081004    1.061571   -0.027973
      7          1           0       -0.322494    0.996130    2.418785
      8          1           0       -0.201626   -0.533539    3.258536
      9          1           0        1.857424    1.027487    1.968172
     10          1           0        2.136364   -0.630608    2.456966
     11          1           0        2.239638   -0.099903   -0.215252
     12          1           0        1.558359   -1.584964    0.430453
     13          6           0       -0.751076   -0.575570    1.101086
     14          1           0       -0.603794   -1.646172    1.011622
     15          1           0       -1.821436   -0.420445    1.134851
 ---------------------------------------------------------------------
                    Distance matrix (angstroms):
                    1          2          3          4          5
     1  C    0.000000
     2  C    2.350849   0.000000
     3  C    2.400402   1.566872   0.000000
     4  C    1.577639   2.454891   1.553238   0.000000
     5  H    1.081089   3.357906   3.391526   2.228667   0.000000
     6  H    1.083953   2.593839   2.683553   2.249622   1.747164
     7  H    2.672279   1.081808   2.134757   3.078925   3.693613
     8  H    3.335792   1.079189   2.255995   3.295091   4.272042
     9  H    2.898570   2.174258   1.078900   2.221638   3.904903
    10  H    3.312951   2.228748   1.080335   2.152479   4.213050
    11  H    2.215307   3.389430   2.223132   1.081338   2.621330
    12  H    2.235097   2.903933   2.157754   1.077051   2.605228
    13  C    1.484848   1.528941   2.447980   2.319725   2.180982
    14  H    2.035902   2.161541   2.812764   2.432620   2.415872
    15  H    2.226795   2.202577   3.425607   3.364636   2.663657
                    6          7          8          9         10
     6  H    0.000000
     7  H    2.459517   0.000000
     8  H    3.655143   1.749194   0.000000
     9  H    2.782672   2.226225   2.888171   0.000000
    10  H    3.735655   2.948511   2.473487   1.751002   0.000000
    11  H    2.601821   3.834574   4.267906   2.486853   2.726365
    12  H    3.146715   3.762063   3.493007   3.046132   2.313361
    13  C    2.098572   2.095293   2.226714   3.182122   3.190416
    14  H    2.947193   3.006825   2.539353   3.757797   3.260193
    15  H    2.564691   2.429403   2.673315   4.040414   4.178079
                   11         12         13         14         15
    11  H    0.000000
    12  H    1.756839   0.000000
    13  C    3.302026   2.608087   0.000000
    14  H    3.461399   2.239735   1.084383   0.000000
    15  H    4.291602   3.643528   1.082070   1.732121   0.000000
 Stoichiometry    C5H10
 Framework group  C1[X(C5H10)]
 Deg. of freedom    39
 Full point group                 C1      NOp   1
 RotChk:  IX=0 Diff= 3.19D-01
 Largest Abelian subgroup         C1      NOp   1
 Largest concise Abelian subgroup C1      NOp   1
                         Standard orientation:                         
 ---------------------------------------------------------------------
 Center     Atomic      Atomic             Coordinates (Angstroms)
 Number     Number       Type             X           Y           Z
 ---------------------------------------------------------------------
      1          6           0        0.819231   -0.879026    0.364437
      2          6           0       -0.069101    1.277929    0.073055
      3          6           0       -1.270038    0.271770    0.095075
      4          6           0       -0.615779   -1.092689   -0.255273
      5          1           0        1.493801   -1.693343    0.139500
      6          1           0        0.820945   -0.739267    1.439341
      7          1           0        0.082758    1.582192    1.100026
      8          1           0       -0.212768    2.166778   -0.521887
      9          1           0       -1.734784    0.297038    1.068419
     10          1           0       -2.024066    0.487068   -0.648034
     11          1           0       -1.115088   -1.944071    0.186465
     12          1           0       -0.605228   -1.209706   -1.325896
     13          6           0        1.144433    0.417975   -0.281168
     14          1           0        1.147432    0.184708   -1.340159
     15          1           0        2.094525    0.892849   -0.074538
 ---------------------------------------------------------------------
 Rotational constants (GHZ):           6.6832113           6.5176037           3.9306828
 Leave Link  202 at Mon Oct 10 14:24:29 2022, MaxMem=   104857600 cpu:               0.0 elap:               0.0
 (Enter /usr/local/g16/l301.exe)
 Standard basis: 6-311++G(d,p) (5D, 7F)
 Ernie: Thresh=  0.10000D-02 Tol=  0.10000D-05 Strict=F.
 There are   185 symmetry adapted cartesian basis functions of A   symmetry.
 There are   180 symmetry adapted basis functions of A   symmetry.
   180 basis functions,   270 primitive gaussians,   185 cartesian basis functions
    20 alpha electrons       20 beta electrons
       nuclear repulsion energy       189.5280717529 Hartrees.
 IExCor=    0 DFT=F Ex=HF Corr=None ExCW=0 ScaHFX=  1.000000
 ScaDFX=  1.000000  1.000000  1.000000  1.000000 ScalE2=  1.000000  1.000000
 IRadAn=      5 IRanWt=     -1 IRanGd=            0 ICorTp=0 IEmpDi=  4
 NAtoms=   15 NActive=   15 NUniq=   15 SFac= 1.00D+00 NAtFMM=   60 NAOKFM=F Big=F
 Integral buffers will be    131072 words long.
 Raffenetti 1 integral format.
 Two-electron integral symmetry is turned on.
 Leave Link  301 at Mon Oct 10 14:24:29 2022, MaxMem=   104857600 cpu:               0.3 elap:               0.0
 (Enter /usr/local/g16/l302.exe)
 NPDir=0 NMtPBC=     1 NCelOv=     1 NCel=       1 NClECP=     1 NCelD=      1
         NCelK=      1 NCelE2=     1 NClLst=     1 CellRange=     0.0.
 One-electron integrals computed using PRISM.
 One-electron integral symmetry used in STVInt
 NBasis=   180 RedAO= T EigKep=  1.07D-05  NBF=   180
 NBsUse=   180 1.00D-06 EigRej= -1.00D+00 NBFU=   180
 Leave Link  302 at Mon Oct 10 14:24:29 2022, MaxMem=   104857600 cpu:               1.0 elap:               0.1
 (Enter /usr/local/g16/l303.exe)
 DipDrv:  MaxL=1.
 Leave Link  303 at Mon Oct 10 14:24:29 2022, MaxMem=   104857600 cpu:               0.2 elap:               0.0
 (Enter /usr/local/g16/l401.exe)
 Initial guess from the checkpoint file:  "c5h10.chk"
 B after Tr=     0.000000   -0.000000    0.000000
         Rot=    0.993748   -0.021108    0.013896    0.108751 Ang= -12.82 deg.
 Guess basis will be translated and rotated to current coordinates.
 JPrj=2 DoOrth=T DoCkMO=T.
 Generating alternative initial guess.
 ExpMin= 3.60D-02 ExpMax= 4.56D+03 ExpMxC= 6.82D+02 IAcc=3 IRadAn=         5 AccDes= 0.00D+00
 Harris functional with IExCor=  205 and IRadAn=       5 diagonalized for initial guess.
 HarFok:  IExCor=  205 AccDes= 0.00D+00 IRadAn=         5 IDoV= 1 UseB2=F ITyADJ=14
 ICtDFT=  3500011 ScaDFX=  1.000000  1.000000  1.000000  1.000000
 FoFCou: FMM=F IPFlag=           0 FMFlag=      100000 FMFlg1=           0
         NFxFlg=           0 DoJE=T BraDBF=F KetDBF=T FulRan=T
         wScrn=  0.000000 ICntrl=       500 IOpCl=  0 I1Cent=   200000004 NGrid=           0
         NMat0=    1 NMatS0=      1 NMatT0=    0 NMatD0=    1 NMtDS0=    0 NMtDT0=    0
 Petite list used in FoFCou.
 Harris En= -195.724180890767    
 Leave Link  401 at Mon Oct 10 14:24:29 2022, MaxMem=   104857600 cpu:               3.9 elap:               0.3
 (Enter /usr/local/g16/l502.exe)
 Integral symmetry usage will be decided dynamically.
 Closed shell SCF:
 Using DIIS extrapolation, IDIIS=  1040.
 NGot=   104857600 LenX=   104784923 LenY=   104750257
 Requested convergence on RMS density matrix=1.00D-08 within 128 cycles.
 Requested convergence on MAX density matrix=1.00D-06.
 Requested convergence on             energy=1.00D-06.
 No special actions if energy rises.
 Fock matrices will be formed incrementally for  20 cycles.

 Cycle   1  Pass 0  IDiag  1:
 FoFJK:  IHMeth= 1 ICntrl=       0 DoSepK=F KAlg= 0 I1Cent=           0 FoldK=F
 IRaf= 990000000 NMat=       1 IRICut=       1 DoRegI=T DoRafI=F ISym2E= 0 IDoP0=0 IntGTp=1.
 FoFCou: FMM=F IPFlag=           0 FMFlag=      100000 FMFlg1=           0
         NFxFlg=           0 DoJE=F BraDBF=F KetDBF=F FulRan=T
         wScrn=  0.000000 ICntrl=         0 IOpCl=  0 I1Cent=           0 NGrid=           0
         NMat0=    1 NMatS0=      1 NMatT0=    0 NMatD0=    1 NMtDS0=    0 NMtDT0=    0
 Symmetry not used in FoFCou.
 E= -195.191022896049    
 DIIS: error= 3.99D-03 at cycle   1 NSaved=   1.
 NSaved= 1 IEnMin= 1 EnMin= -195.191022896049     IErMin= 1 ErrMin= 3.99D-03
 ErrMax= 3.99D-03  0.00D+00 EMaxC= 1.00D-01 BMatC= 5.00D-03 BMatP= 5.00D-03
 IDIUse=3 WtCom= 9.60D-01 WtEn= 3.99D-02
 Coeff-Com:  0.100D+01
 Coeff-En:   0.100D+01
 Coeff:      0.100D+01
 Gap=     0.707 Goal=   None    Shift=    0.000
 GapD=    0.707 DampG=2.000 DampE=1.000 DampFc=2.0000 IDamp=-1.
 RMSDP=2.02D-03 MaxDP=7.16D-02              OVMax= 1.56D-02

 Cycle   2  Pass 0  IDiag  1:
 RMSU=  2.02D-03    CP:  1.01D+00
 E= -195.196478766931     Delta-E=       -0.005455870882 Rises=F Damp=F
 DIIS: error= 7.90D-04 at cycle   2 NSaved=   2.
 NSaved= 2 IEnMin= 2 EnMin= -195.196478766931     IErMin= 2 ErrMin= 7.90D-04
 ErrMax= 7.90D-04  0.00D+00 EMaxC= 1.00D-01 BMatC= 2.37D-04 BMatP= 5.00D-03
 IDIUse=3 WtCom= 9.92D-01 WtEn= 7.90D-03
 Coeff-Com: -0.123D+00 0.112D+01
 Coeff-En:   0.000D+00 0.100D+01
 Coeff:     -0.122D+00 0.112D+01
 Gap=     0.488 Goal=   None    Shift=    0.000
 RMSDP=3.93D-04 MaxDP=1.74D-02 DE=-5.46D-03 OVMax= 5.52D-03

 Cycle   3  Pass 0  IDiag  1:
 RMSU=  1.86D-04    CP:  1.00D+00  1.17D+00
 E= -195.196846473418     Delta-E=       -0.000367706487 Rises=F Damp=F
 DIIS: error= 4.75D-04 at cycle   3 NSaved=   3.
 NSaved= 3 IEnMin= 3 EnMin= -195.196846473418     IErMin= 3 ErrMin= 4.75D-04
 ErrMax= 4.75D-04  0.00D+00 EMaxC= 1.00D-01 BMatC= 2.96D-05 BMatP= 2.37D-04
 IDIUse=3 WtCom= 9.95D-01 WtEn= 4.75D-03
 Coeff-Com: -0.573D-01 0.225D+00 0.833D+00
 Coeff-En:   0.000D+00 0.000D+00 0.100D+01
 Coeff:     -0.570D-01 0.224D+00 0.833D+00
 Gap=     0.487 Goal=   None    Shift=    0.000
 RMSDP=9.82D-05 MaxDP=4.74D-03 DE=-3.68D-04 OVMax= 1.44D-03

 Cycle   4  Pass 0  IDiag  1:
 RMSU=  7.65D-05    CP:  1.00D+00  1.17D+00  1.21D+00
 E= -195.196882911316     Delta-E=       -0.000036437898 Rises=F Damp=F
 DIIS: error= 1.29D-04 at cycle   4 NSaved=   4.
 NSaved= 4 IEnMin= 4 EnMin= -195.196882911316     IErMin= 4 ErrMin= 1.29D-04
 ErrMax= 1.29D-04  0.00D+00 EMaxC= 1.00D-01 BMatC= 1.99D-06 BMatP= 2.96D-05
 IDIUse=3 WtCom= 9.99D-01 WtEn= 1.29D-03
 Coeff-Com:  0.775D-02-0.888D-01 0.595D-01 0.102D+01
 Coeff-En:   0.000D+00 0.000D+00 0.000D+00 0.100D+01
 Coeff:      0.774D-02-0.887D-01 0.594D-01 0.102D+01
 Gap=     0.487 Goal=   None    Shift=    0.000
 RMSDP=4.14D-05 MaxDP=1.35D-03 DE=-3.64D-05 OVMax= 5.77D-04

 Cycle   5  Pass 0  IDiag  1:
 RMSU=  2.04D-05    CP:  1.00D+00  1.16D+00  1.33D+00  1.26D+00
 E= -195.196886424520     Delta-E=       -0.000003513204 Rises=F Damp=F
 DIIS: error= 2.28D-05 at cycle   5 NSaved=   5.
 NSaved= 5 IEnMin= 5 EnMin= -195.196886424520     IErMin= 5 ErrMin= 2.28D-05
 ErrMax= 2.28D-05  0.00D+00 EMaxC= 1.00D-01 BMatC= 7.75D-08 BMatP= 1.99D-06
 IDIUse=1 WtCom= 1.00D+00 WtEn= 0.00D+00
 Coeff-Com:  0.206D-02-0.912D-02-0.336D-01 0.511D-02 0.104D+01
 Coeff:      0.206D-02-0.912D-02-0.336D-01 0.511D-02 0.104D+01
 Gap=     0.487 Goal=   None    Shift=    0.000
 RMSDP=1.20D-05 MaxDP=4.20D-04 DE=-3.51D-06 OVMax= 1.46D-04

 Cycle   6  Pass 0  IDiag  1:
 RMSU=  3.14D-06    CP:  1.00D+00  1.16D+00  1.35D+00  1.34D+00  1.30D+00
 E= -195.196886585574     Delta-E=       -0.000000161054 Rises=F Damp=F
 DIIS: error= 6.35D-06 at cycle   6 NSaved=   6.
 NSaved= 6 IEnMin= 6 EnMin= -195.196886585574     IErMin= 6 ErrMin= 6.35D-06
 ErrMax= 6.35D-06  0.00D+00 EMaxC= 1.00D-01 BMatC= 8.72D-09 BMatP= 7.75D-08
 IDIUse=1 WtCom= 1.00D+00 WtEn= 0.00D+00
 Coeff-Com: -0.423D-03 0.682D-02-0.111D-01-0.902D-01 0.163D+00 0.932D+00
 Coeff:     -0.423D-03 0.682D-02-0.111D-01-0.902D-01 0.163D+00 0.932D+00
 Gap=     0.487 Goal=   None    Shift=    0.000
 RMSDP=2.38D-06 MaxDP=8.65D-05 DE=-1.61D-07 OVMax= 4.49D-05

 Initial convergence to 1.0D-05 achieved.  Increase integral accuracy.
 Cycle   7  Pass 1  IDiag  1:
 E= -195.196886600816     Delta-E=       -0.000000015242 Rises=F Damp=F
 DIIS: error= 1.20D-06 at cycle   1 NSaved=   1.
 NSaved= 1 IEnMin= 1 EnMin= -195.196886600816     IErMin= 1 ErrMin= 1.20D-06
 ErrMax= 1.20D-06  0.00D+00 EMaxC= 1.00D-01 BMatC= 3.82D-10 BMatP= 3.82D-10
 IDIUse=1 WtCom= 1.00D+00 WtEn= 0.00D+00
 Coeff-Com:  0.100D+01
 Coeff:      0.100D+01
 Gap=     0.487 Goal=   None    Shift=    0.000
 RMSDP=2.38D-06 MaxDP=8.65D-05 DE=-1.52D-08 OVMax= 7.51D-06

 Cycle   8  Pass 1  IDiag  1:
 RMSU=  5.12D-07    CP:  1.00D+00
 E= -195.196886601543     Delta-E=       -0.000000000727 Rises=F Damp=F
 DIIS: error= 5.46D-07 at cycle   2 NSaved=   2.
 NSaved= 2 IEnMin= 2 EnMin= -195.196886601543     IErMin= 2 ErrMin= 5.46D-07
 ErrMax= 5.46D-07  0.00D+00 EMaxC= 1.00D-01 BMatC= 7.45D-11 BMatP= 3.82D-10
 IDIUse=1 WtCom= 1.00D+00 WtEn= 0.00D+00
 Coeff-Com:  0.110D+00 0.890D+00
 Coeff:      0.110D+00 0.890D+00
 Gap=     0.487 Goal=   None    Shift=    0.000
 RMSDP=1.66D-07 MaxDP=5.55D-06 DE=-7.27D-10 OVMax= 3.49D-06

 Cycle   9  Pass 1  IDiag  1:
 RMSU=  8.31D-08    CP:  1.00D+00  1.26D+00
 E= -195.196886601672     Delta-E=       -0.000000000129 Rises=F Damp=F
 DIIS: error= 2.88D-07 at cycle   3 NSaved=   3.
 NSaved= 3 IEnMin= 3 EnMin= -195.196886601672     IErMin= 3 ErrMin= 2.88D-07
 ErrMax= 2.88D-07  0.00D+00 EMaxC= 1.00D-01 BMatC= 1.50D-11 BMatP= 7.45D-11
 IDIUse=1 WtCom= 1.00D+00 WtEn= 0.00D+00
 Coeff-Com: -0.218D+00 0.120D-01 0.121D+01
 Coeff:     -0.218D+00 0.120D-01 0.121D+01
 Gap=     0.487 Goal=   None    Shift=    0.000
 RMSDP=1.12D-07 MaxDP=2.07D-06 DE=-1.29D-10 OVMax= 2.36D-06

 Cycle  10  Pass 1  IDiag  1:
 RMSU=  5.68D-08    CP:  1.00D+00  1.44D+00  1.32D+00
 E= -195.196886601711     Delta-E=       -0.000000000040 Rises=F Damp=F
 DIIS: error= 3.87D-08 at cycle   4 NSaved=   4.
 NSaved= 4 IEnMin= 4 EnMin= -195.196886601711     IErMin= 4 ErrMin= 3.87D-08
 ErrMax= 3.87D-08  0.00D+00 EMaxC= 1.00D-01 BMatC= 3.60D-13 BMatP= 1.50D-11
 IDIUse=1 WtCom= 1.00D+00 WtEn= 0.00D+00
 Coeff-Com: -0.117D-01-0.296D-01 0.387D-01 0.100D+01
 Coeff:     -0.117D-01-0.296D-01 0.387D-01 0.100D+01
 Gap=     0.487 Goal=   None    Shift=    0.000
 RMSDP=1.60D-08 MaxDP=4.34D-07 DE=-3.98D-11 OVMax= 2.94D-07

 Cycle  11  Pass 1  IDiag  1:
 RMSU=  6.73D-09    CP:  1.00D+00  1.43D+00  1.40D+00  1.21D+00
 E= -195.196886601712     Delta-E=       -0.000000000000 Rises=F Damp=F
 DIIS: error= 2.06D-08 at cycle   5 NSaved=   5.
 NSaved= 5 IEnMin= 5 EnMin= -195.196886601712     IErMin= 5 ErrMin= 2.06D-08
 ErrMax= 2.06D-08  0.00D+00 EMaxC= 1.00D-01 BMatC= 4.96D-14 BMatP= 3.60D-13
 IDIUse=1 WtCom= 1.00D+00 WtEn= 0.00D+00
 Coeff-Com:  0.227D-01-0.346D-02-0.127D+00 0.574D-01 0.105D+01
 Coeff:      0.227D-01-0.346D-02-0.127D+00 0.574D-01 0.105D+01
 Gap=     0.487 Goal=   None    Shift=    0.000
 RMSDP=7.92D-09 MaxDP=2.51D-07 DE=-1.14D-13 OVMax= 1.35D-07

 SCF Done:  E(RHF) =  -195.196886602     A.U. after   11 cycles
            NFock= 11  Conv=0.79D-08     -V/T= 1.9998
 KE= 1.952288472326D+02 PE=-8.329447041596D+02 EE= 2.529908985724D+02
 Leave Link  502 at Mon Oct 10 14:24:32 2022, MaxMem=   104857600 cpu:              33.4 elap:               2.8
 (Enter /usr/local/g16/l701.exe)
 ... and contract with generalized density number  0.
 Compute integral first derivatives.
 Leave Link  701 at Mon Oct 10 14:24:32 2022, MaxMem=   104857600 cpu:               1.0 elap:               0.1
 (Enter /usr/local/g16/l702.exe)
 L702 exits ... SP integral derivatives will be done elsewhere.
 Leave Link  702 at Mon Oct 10 14:24:32 2022, MaxMem=   104857600 cpu:               0.1 elap:               0.0
 (Enter /usr/local/g16/l703.exe)
 Integral derivatives from FoFJK, PRISM(SPDF).
 Compute integral first derivatives, UseDBF=F ICtDFT=           0.
 Calling FoFJK, ICntrl=      2127 FMM=F ISym2X=0 I1Cent= 0 IOpClX= 0 NMat=1 NMatS=1 NMatT=0.
 FoFJK:  IHMeth= 1 ICntrl=    2127 DoSepK=F KAlg= 0 I1Cent=           0 FoldK=F
 IRaf=         0 NMat=       1 IRICut=       1 DoRegI=T DoRafI=F ISym2E= 0 IDoP0=0 IntGTp=1.
 FoFCou: FMM=F IPFlag=           0 FMFlag=      100000 FMFlg1=         800
         NFxFlg=           0 DoJE=F BraDBF=F KetDBF=F FulRan=T
         wScrn=  0.000000 ICntrl=      2127 IOpCl=  0 I1Cent=           0 NGrid=           0
         NMat0=    1 NMatS0=      1 NMatT0=    0 NMatD0=    1 NMtDS0=    0 NMtDT0=    0
 Symmetry not used in FoFCou.
 Leave Link  703 at Mon Oct 10 14:24:33 2022, MaxMem=   104857600 cpu:               8.8 elap:               0.7
 (Enter /usr/local/g16/l716.exe)
 Dipole        = 6.50744953D-03-1.38482061D-02-6.83475085D-03
 ***** Axes restored to original set *****
 -------------------------------------------------------------------
 Center     Atomic                   Forces (Hartrees/Bohr)
 Number     Number              X              Y              Z
 -------------------------------------------------------------------
      1        6           0.020527002   -0.013313463   -0.014045157
      2        6           0.007376208    0.011868390   -0.008474048
      3        6          -0.005415186   -0.020365630   -0.001269902
      4        6          -0.013774292    0.047422324   -0.000302076
      5        1          -0.003380093   -0.002877935   -0.002049017
      6        1           0.011392754    0.004330572   -0.003247926
      7        1          -0.003870096    0.002941877    0.008346214
      8        1           0.000828898   -0.004484854    0.000802079
      9        1           0.004616836    0.001908606   -0.004142463
     10        1           0.001079840    0.001427063    0.007907359
     11        1           0.005232703   -0.000423337    0.000957904
     12        1          -0.005683350   -0.004757609   -0.006052134
     13        6          -0.011022316   -0.025301339    0.016350106
     14        1          -0.006377057   -0.006213377    0.007932519
     15        1          -0.001531849    0.007838712   -0.002713458
 -------------------------------------------------------------------
 Cartesian Forces:  Max     0.047422324 RMS     0.011269723
 Leave Link  716 at Mon Oct 10 14:24:33 2022, MaxMem=   104857600 cpu:               0.2 elap:               0.0
 (Enter /usr/local/g16/l103.exe)

 GradGradGradGradGradGradGradGradGradGradGradGradGradGradGradGradGradGrad
 Berny optimization.
 Using GEDIIS/GDIIS optimizer.
 FormGI is forming the generalized inverse of G from B-inverse, IUseBI=4.
 Internal  Forces:  Max     0.028254505 RMS     0.005418922
 Search for a local minimum.
 Step number   2 out of a maximum of  100
 All quantities printed in internal units (Hartrees-Bohrs-Radians)
 RMS Force = .48158D-02 SwitMx=.10000D-02 MixMth= 1
 Mixed Optimization -- RFO/linear search
 Update second derivatives using D2CorX and points    1    2
 DE= -3.32D-02 DEPred=-3.71D-02 R= 8.97D-01
 TightC=F SS=  1.41D+00  RLast= 4.36D-01 DXNew= 5.0454D-01 1.3077D+00
 Trust test= 8.97D-01 RLast= 4.36D-01 DXMaxT set to 5.05D-01
 ITU=  1  0
 Use linear search instead of GDIIS.
     Eigenvalues ---    0.01004   0.01449   0.02192   0.02796   0.04441
     Eigenvalues ---    0.04827   0.05102   0.05217   0.05539   0.05747
     Eigenvalues ---    0.05899   0.06282   0.06796   0.06813   0.07082
     Eigenvalues ---    0.07350   0.07963   0.08684   0.09432   0.10670
     Eigenvalues ---    0.11298   0.18519   0.19814   0.20723   0.25840
     Eigenvalues ---    0.26426   0.29878   0.36986   0.37230   0.37230
     Eigenvalues ---    0.37230   0.37230   0.37230   0.37230   0.37230
     Eigenvalues ---    0.37230   0.37399   0.446791000.000001000.00000
     Eigenvalues --- 1000.000001000.000001000.000001000.000001000.00000
     Eigenvalues --- 1000.000001000.000001000.000001000.000001000.00000
     Eigenvalues --- 1000.000001000.000001000.000001000.000001000.00000
     Eigenvalues --- 1000.000001000.000001000.000001000.000001000.00000
     Eigenvalues --- 1000.000001000.000001000.000001000.000001000.00000
     Eigenvalues --- 1000.000001000.000001000.000001000.000001000.00000
     Eigenvalues --- 1000.000001000.000001000.000001000.000001000.00000
     Eigenvalues --- 1000.000001000.000001000.000001000.000001000.00000
     Eigenvalues --- 1000.000001000.000001000.000001000.000001000.00000
     Eigenvalues --- 1000.000001000.000001000.000001000.000001000.00000
 RFO step:  Lambda=-1.23375409D-02 EMin= 1.00432768D-02
 Quartic linear search produced a step of  0.65520.
[...]
 Beta(0;0,0):
               (au)            (10**-30 esu)      (10**-50 SI)
   || (z)    -0.250302D-01     -0.216241D-03     -0.802558D-04
   _|_(z)    -0.834339D-02     -0.720804D-04     -0.267519D-04
   x         -0.167028D+00     -0.144299D-02     -0.535551D-03
   y         -0.239241D+01     -0.206686D-01     -0.767094D-02
   z         -0.125151D+00     -0.108121D-02     -0.401279D-03
   ||         0.480300D+00      0.414942D-02      0.154002D-02
   xxx       -0.196246D+01     -0.169541D-01     -0.629236D-02
   xxy       -0.927163D+01     -0.800997D-01     -0.297282D-01
   yxy        0.126812D+01      0.109556D-01      0.406604D-02
   yyy       -0.669146D+00     -0.578090D-02     -0.214553D-02
   xxz        0.228606D+01      0.197498D-01      0.732994D-02
   yxz       -0.803594D+00     -0.694243D-02     -0.257661D-02
   yyz       -0.915130D+01     -0.790601D-01     -0.293424D-01
   zxz        0.638667D+00      0.551759D-02      0.204780D-02
   zyz        0.914331D+01      0.789911D-01      0.293167D-01
   zzz        0.682352D+01      0.589499D-01      0.218787D-01

 ----------------------------------------------------------------------
 1\1\GINC-AE2-C724\Freq\RHF\6-311++G(d,p)\C5H10\DDI\10-Oct-2022\0\\#P G
 eom=AllCheck Guess=TCheck SCRF=Check GenChk RHF/6-311++G(d,p) Freq\\Ti
 tle Card Required\\0,1\C,0.0626745975,-0.1196311917,-0.0766954533\C,0.
 0061017424,-0.0566301336,2.3468983304\C,1.4858533732,0.0170273169,1.88
 20875346\C,1.4848588037,-0.4204172245,0.4040246757\H,-0.1990517064,-0.
 6405970196,-0.992474174\H,-0.0491782097,0.947473615,-0.2637460359\H,-0
 .3372297917,0.9244428495,2.6613587351\H,-0.124507571,-0.7195609409,3.1
 957680234\H,1.8568236978,1.0336516321,1.9721816526\H,2.1366983273,-0.6
 070062759,2.4854984816\H,2.2506018637,0.0787936458,-0.1810996012\H,1.6
 701370363,-1.4900413006,0.3304064819\C,-0.79678788,-0.5339822793,1.120
 7109313\H,-0.8933338893,-1.6176379841,1.135616692\H,-1.800818315,-0.12
 28691006,1.0914973698\\Version=ES64L-G16RevA.03\State=1-A\HF=-195.2107
 511\RMSD=6.063e-10\RMSF=2.098e-06\ZeroPoint=0.1486778\Thermal=0.152762
 6\Dipole=-0.0015479,-0.0007729,-0.0050504\DipoleDeriv=0.0376894,0.0047
 552,0.0236508,-0.008078,0.1981227,0.0008442,0.0216182,0.0416865,0.1059
 351,0.0557886,-0.0319622,-0.0315673,-0.0519727,0.1900169,-0.0202801,-0
 .0207158,-0.036521,0.1112347,0.0960187,-0.0045248,0.0443644,0.0214716,
 0.1949357,-0.0389431,0.0344633,-0.0417645,0.0660895,0.082409,0.0371211
 ,-0.0451899,-0.0014369,0.2016391,0.0016495,-0.0437428,-0.0240961,0.071
 3148,0.0124205,-0.0220394,-0.0614472,-0.0349336,0.0024863,-0.1156712,-
 0.0634905,-0.0746218,-0.1833264,0.0031641,0.0186602,0.0024998,0.034488
 3,-0.2067285,0.0765178,0.0050057,0.02614,0.0233812,-0.0216783,0.053995
 8,0.0384691,0.0760284,-0.1578027,-0.1063438,0.0164375,-0.0485238,-0.00
 11867,0.0124159,-0.0158823,0.0187398,-0.0337353,-0.0345159,0.1363129,0
 .042847,0.085772,-0.1542917,-0.0241077,-0.0596993,-0.0085457,-0.111395
 2,-0.1727834,-0.0498492,0.0087844,-0.0132305,0.0162253,-0.0860301,0.05
 98749,-0.0831747,0.1040487,-0.0236437,0.0864252,-0.1031119,0.0531741,-
 0.066725,-0.1221493,-0.0577325,0.1122245,-0.0925298,0.0072554,0.066943
 ,0.1103875,0.0366494,-0.0559077,0.0179153,0.0237599,-0.0078345,0.07035
 07,-0.205031,-0.0431838,-0.0114317,-0.0084675,0.0060013,0.1249859,-0.0
 514722,0.0092382,-0.0050936,0.1969442,0.0061733,0.0090273,0.0070243,0.
 0334426,0.0307976,-0.0027894,-0.0045898,-0.060938,-0.2129235,-0.001583
 ,-0.0028241,0.0005018,0.0010071,-0.2196398,0.0479348,-0.0068374,0.0937
 254,0.0220284,0.0009884,-0.0032541,-0.0037229,0.026806\Polar=56.005564
 3,0.5600989,49.9069187,-0.0731698,0.8086492,55.9515199\PolarDeriv=-3.7
 00554,1.7681085,1.0770139,-2.2421203,0.0397275,3.2520229,1.8929988,1.3
 255603,-6.6690311,0.5063586,2.5688523,4.4802983,-3.3342895,0.023751,1.
 773295,3.6752138,3.0214672,3.5169602,-4.6498818,-0.1131302,1.8369035,1
 .911496,0.9439587,1.9572674,0.3078753,2.0996606,-3.1149574,0.4917596,-
 2.904728,3.2044536,3.6265394,0.7333435,-2.1559918,2.7071941,2.4679991,
 -1.4284285,3.0001743,0.8625633,-2.3869283,-4.0329893,0.4878813,0.07300
 74,1.7397058,-2.9704545,-3.8372645,0.8884775,-1.2687175,2.5719475,-3.0
 400185,0.7722093,-0.7842979,-1.4710827,2.1352537,3.3816149,0.7672714,-
 2.0670679,-1.4495741,4.5303892,0.6222379,-0.7058657,-3.1253156,-2.0625
 347,6.1719365,1.1914875,0.8442901,-3.2925835,3.8390462,0.335047,0.3938
 576,-1.9276459,-2.5592611,-3.9305596,-0.9614201,-0.9443043,-0.4773595,
 -1.7345787,-0.3972183,-1.7644967,-1.0486755,-0.7872612,-1.0177846,-0.8
 209421,-2.4061121,-3.6115357,-1.0188009,-0.4098781,-1.4155707,-2.06167
 41,-2.2873323,-8.6632855,-0.1974435,1.1587181,-0.6731685,-0.3241604,0.
 2555029,-0.5425724,1.2136678,-1.1234427,8.1481884,0.2940202,-2.6203813
 ,1.6106016,0.1425425,0.2069709,-1.1825966,-0.6803228,1.4603538,-1.7209
 995,-1.1669241,1.7255858,-1.6710563,0.8846449,-0.8101212,-0.9401592,1.
 6181692,-1.9244013,6.2006527,-0.908748,2.8640361,2.046581,0.0598631,-0
 .6190026,1.6070616,-1.0233803,1.5175859,1.9956386,-0.3554505,-0.804794
 2,-0.5003277,1.4215931,0.2217635,-0.7565037,-0.9477523,-0.8572629,-2.0
 861851,0.7354403,2.7085529,-3.9209809,0.6337539,0.2865539,1.8304317,-1
 .2855925,-2.6673901,7.1177055,1.9089343,2.0208253,2.0769431,0.8768555,
 0.2559448,0.2958565,2.235807,3.0231235,6.8770696,0.5372127,1.4468898,1
 .1536334,0.3110317,0.1045604,0.5080403,0.8501635,1.0384686,0.3118162,4
 .3023154,-1.6887489,1.3749717,2.7303875,-0.8459805,1.7342835,-2.704410
 4,2.1027459,-1.6888907,-1.568534,1.5628221,-2.1125188,2.304075,-0.9032
 977,1.0875198,2.5539797,-1.6105039,3.3559162,5.8205157,1.6418131,1.189
 8443,-3.1990882,-0.6638835,2.2682801,2.6597034,1.8812173,0.8527729,-1.
 4145204,-1.2853929,1.8521432,-2.7871972,-0.6639718,-0.7264403,2.966469
 9,1.2819292,-3.2223503,0.9926706,-1.3739298,1.1063623,-0.76844,0.19220
 55,0.1602107,-1.5785302,2.3351451,-8.1139074,0.2527714,-1.3351482,-1.1
 38527,-0.5726175,0.234839,-0.670075,0.7001166,-1.1414756,-0.2583169,5.
 8771343,-2.4125658,0.3943361,0.1511368,-0.3232223,-4.9429446,-4.097453
 2,0.9958644,6.5731012,-0.294136,-0.2511571,-2.5860318,0.1879935,-0.048
 7886,-0.229302,-3.557305,-2.2891331,-0.5102158,-1.4340537,-1.3304497,-
 0.787235,-0.0016261,0.0016163,0.4998105,-1.373669,-2.1853207,-8.659291
 7,0.0402212,0.0685697,-0.9962478,-0.138464,-0.0629571,-0.1027429,-0.05
 52391,-1.023125,-0.0093743,-10.2032884,1.5573766,-1.1107254,-0.2035001
 ,0.0195875,-0.5881966,3.2078788,-1.8526392,0.3635913,0.0691316,0.00762
 43,0.7387669,-0.2134578,0.0106211,0.0668111,-1.3908952,0.6551636,0.063
 8787\HyperPolar=-4.0168746,6.7904899,2.3526058,3.8940804,-2.0916793,-6
 .3575923,5.2602319,1.6058905,-9.8884484,-3.2284075\Quadrupole=-0.29170
 13,0.5877853,-0.296084,-0.0844997,0.0070003,-0.1287075\PG=C01 [X(C5H10
 )]\NImag=1\\0.48745946,0.00170317,0.64590067,0.05083668,0.03302535,0.6
 3867726,0.00714826,0.00481285,0.00666817,0.47505085,0.00509086,0.00791
 088,0.00802207,-0.03195280,0.64291989,-0.00747913,-0.01008989,-0.04045
 660,-0.04178916,-0.02961937,0.61430988,-0.00712559,-0.01022920,-0.0303
 2955,-0.17705333,-0.00029558,0.02826238,0.55901205,-0.00052592,0.00691
 807,0.00772140,-0.00744183,-0.09231414,0.00367199,-0.00076382,0.645817
 66,-0.01460096,-0.00594268,-0.02519079,0.03019746,0.00152356,-0.092959
 91,0.08328316,-0.03187103,0.52745208,-0.18997307,0.02440018,-0.0296426
 4,-0.00625752,0.00932910,0.02879418,-0.08530530,0.00101558,-0.00426074
 ,0.59325074,0.02515242,-0.10164554,0.00878652,0.00085448,0.00259174,0.
 00171524,-0.00241412,-0.10511643,-0.03287401,0.02135251,0.64221540,-0.
 04030539,0.00737866,-0.09723974,0.01563752,-0.00155228,-0.01866444,0.0
 0140427,-0.03133825,-0.18659098,-0.08416892,-0.02456652,0.52549033,-0.
 07375166,-0.03193629,-0.05475133,-0.00355271,-0.00196506,0.00350196,-0
 .00655876,0.00247803,-0.00168334,-0.00321083,-0.01856694,-0.02903794,0
 .07428486,-0.03320951,-0.12637975,-0.11653769,-0.00035254,0.00024342,0
 .00240655,0.00105969,0.00054226,0.00165787,0.00171789,0.00349577,0.008
 00290,0.03541206,0.13113760,-0.05495285,-0.11248372,-0.25091525,0.0021
 6920,0.00250642,-0.00346513,-0.00031972,0.00093993,-0.00075802,0.00066
 340,-0.00378038,-0.00502051,0.06144404,0.12452416,0.27209209,-0.058287
 85,0.02561661,-0.00652699,0.00013939,0.00022576,-0.00063531,0.00076053
 ,-0.00012923,0.00088444,-0.00381094,0.03800858,-0.00462969,0.00103014,
 -0.00877106,0.00204838,0.06459499,0.02612781,-0.31466556,0.04203895,0.
 00009644,0.00007821,0.00006703,0.00001495,0.00005496,0.00017793,0.0004
 0238,-0.00662789,0.00012922,0.00152110,-0.01741704,0.00209078,-0.02917
 025,0.34204034,-0.00644603,0.04041179,-0.06908442,0.00003149,0.0000335
 3,0.00112808,0.00022000,0.00016413,0.00053023,0.00032936,0.00926801,-0
 .00114816,0.00367911,-0.03067523,0.00680280,0.00415811,-0.04847612,0.0
 6739515,-0.00038591,-0.00000926,-0.00010912,-0.08100121,0.07945079,0.0
 2469084,-0.01218205,0.03100175,0.00947040,-0.00383031,-0.00060582,-0.0
 0018201,0.00010298,0.00010641,0.00002095,0.00034148,0.00008667,0.00008
 270,0.09212223,0.00005173,-0.00040325,-0.00008322,0.08002541,-0.285300
 07,-0.06936102,-0.00368548,0.00335927,0.00261604,-0.00046383,0.0005173
 9,0.00014973,0.00005882,0.00023330,-0.00030656,0.00031116,0.00037514,-
 0.00023763,-0.08339761,0.30691000,0.00005748,-0.00048260,0.00045462,0.
 02425066,-0.06729417,-0.08143460,0.00244801,-0.00872354,-0.00197784,0.
 00094246,0.00064814,-0.00085378,-0.00006501,0.00049246,-0.00020626,0.0
 0016196,0.00051586,-0.00050883,-0.02550973,0.07674277,0.08162546,-0.00
 332066,-0.00138464,-0.00247123,-0.06024181,-0.01851934,0.02461586,-0.0
 0245649,-0.02232251,0.02509815,-0.00335007,-0.00104065,0.00127980,0.00
 093281,0.00011593,-0.00069379,-0.00011388,0.00001878,0.00009842,0.0018
 4219,0.00713852,-0.00975878,0.06350732,-0.00100998,-0.00047687,-0.0023
 2004,-0.01933098,-0.16647577,0.13682600,0.00043739,-0.00008884,-0.0015
 9559,-0.00000998,-0.00037118,-0.00069864,0.00033332,0.00023622,-0.0005
 2218,0.00014188,0.00028567,-0.00034636,-0.00344111,-0.02163388,0.02730
 542,0.02169107,0.17569776,-0.00279506,-0.00280818,-0.00374636,0.025597
 08,0.13334318,-0.22374037,-0.00199093,0.00492098,-0.00471721,0.0001882
 2,0.00023645,-0.00054259,0.00101433,0.00040450,-0.00135459,-0.00011929
 ,0.00016632,0.00022327,-0.00174127,-0.00570544,0.01024988,-0.02612334,
 -0.14617258,0.24120180,-0.00005611,-0.00025117,0.00048137,-0.01195316,
 -0.03176331,-0.00167387,-0.08678733,-0.08539665,-0.01024108,0.00024879
 ,0.00251413,0.00206567,0.00002652,0.00018062,-0.00015511,-0.00003393,0
 .00019862,-0.00039305,0.00218643,0.00007794,-0.00011945,-0.00424923,-0
 .00064152,0.00073075,0.09399583,-0.00006867,-0.00042211,-0.00001079,0.
 00297791,0.00056623,-0.00002808,-0.08705994,-0.30181136,-0.01870911,-0
 .00162867,-0.00905518,0.00019588,-0.00023861,0.00022238,-0.00022309,-0
 .00041324,0.00034561,-0.00003964,-0.00008849,0.00284732,0.00010815,-0.
 00046113,0.00082158,-0.00043686,0.09288630,0.32445818,0.00035335,-0.00
 038671,0.00014365,0.00535693,0.01113993,0.00058638,-0.00997341,-0.0173
 0998,-0.05914098,-0.00968944,-0.03667045,-0.00182915,-0.00014312,0.000
 46407,-0.00011887,-0.00053368,0.00044020,-0.00010387,-0.00046107,0.000
 03889,0.00136482,0.00193338,0.00013831,-0.00031213,0.00510525,0.022925
 16,0.06220739,-0.00089564,-0.00053342,0.00075022,-0.01572133,0.0202135
 3,-0.01783581,-0.15443801,0.09529062,-0.09101567,0.00252749,-0.0013349
 2,0.00202488,0.00007253,0.00012899,-0.00024893,0.00002999,0.00005463,0
 .00007273,-0.00423298,-0.00035409,0.00079954,0.00243781,-0.00046185,0.
 00019991,0.00890138,-0.00657438,0.00786252,0.16487246,-0.00057168,-0.0
 0041870,-0.00225946,-0.00295482,0.00189246,-0.00287445,0.09797166,-0.1
 5473596,0.09274835,-0.00875933,0.00695295,-0.00820822,-0.00052961,0.00
 019607,-0.00024243,-0.00034509,0.00026287,-0.00019243,0.00008796,0.000
 86318,-0.00014702,0.00021245,0.00165407,-0.00061616,0.02117031,-0.0211
 0897,0.02056242,-0.10535537,0.16279642,0.00112724,-0.00284247,-0.00622
 961,0.00918864,-0.00809072,0.00656588,-0.09170058,0.09027969,-0.141278
 38,-0.02139899,0.02139539,-0.01598783,-0.00202699,0.00023559,-0.000454
 15,0.00024665,0.00017551,0.00010224,0.00204357,-0.00040489,-0.00036996
 ,-0.00072104,-0.00045020,0.00159937,0.00256504,-0.00107327,0.00266570,
 0.09877724,-0.09846102,0.15273357,-0.01767329,-0.01692231,0.02002092,-
 0.00070153,-0.00017254,-0.00128897,0.00310343,0.00107725,-0.00313549,-
 0.19308109,-0.09034842,0.10327358,-0.00036897,-0.00028964,-0.00073680,
 0.00200936,0.00073866,0.00027363,0.00004434,0.00006887,0.00013803,0.00
 010004,0.00007338,0.00021528,0.00083756,0.00075171,0.00053519,-0.00027
 748,0.00028671,0.00021201,0.20743115,0.00656421,0.00364442,-0.00560071
 ,0.00119480,0.00002395,-0.00245751,0.00947444,0.00490652,-0.00649163,-
 0.09397647,-0.12093572,0.07244192,-0.00041485,-0.00004506,0.00010310,-
 0.00046046,0.00111713,-0.00060781,0.00027816,-0.00004158,-0.00012271,0
 .00052173,0.00000053,-0.00021196,0.00051145,0.00150333,0.00042677,-0.0
 0023228,0.00014574,-0.00014446,0.10066227,0.12593627,-0.00999788,-0.00
 815760,0.00964291,-0.00073260,-0.00128715,-0.00501211,0.02424516,0.016
 47797,-0.01377918,0.10363066,0.07015034,-0.13700488,0.00054528,-0.0003
 3468,-0.00006779,0.00126876,-0.00037078,0.00053152,0.00101792,-0.00009
 851,-0.00045231,0.00110295,0.00005260,-0.00033269,-0.00021581,-0.00043
 223,0.00244718,-0.00030359,-0.00013481,-0.00169817,-0.11468875,-0.0760
 1916,0.14496349,-0.00533168,0.03664845,0.00120820,-0.00006833,-0.00033
 870,-0.00008915,-0.00004002,-0.00297212,-0.00194608,-0.06678070,0.0415
 7840,0.00668172,0.00214381,-0.00066414,-0.00002761,-0.00696739,0.00151
 460,-0.00162642,0.00004383,-0.00005427,-0.00005736,0.00004309,0.000045
 97,0.00012863,0.00078893,-0.00019402,-0.00109830,0.00071489,-0.0003581
 4,0.00015121,0.00577314,-0.02625839,-0.00226024,0.06852165,0.00051145,
 -0.00745056,0.00038201,-0.00001435,-0.00017594,-0.00035129,0.00055973,
 -0.00867571,0.00045850,0.04309934,-0.31926054,-0.01604610,0.00036877,0
 .00116160,0.00072226,0.00159133,0.00158366,0.00060874,0.00013976,0.000
 05997,0.00002624,0.00026562,-0.00000215,-0.00025820,0.00047106,0.00105
 747,-0.00223199,-0.00060494,0.00191792,-0.00041786,0.00209999,-0.01706
 781,-0.00032132,-0.04842269,0.34580687,-0.00323434,0.01553896,-0.00016
 709,-0.00064323,-0.00009040,-0.00048352,0.00343308,-0.03679530,-0.0026
 2535,0.00629581,-0.01513999,-0.05785581,0.00089280,0.00026152,0.000300
 29,-0.00365003,0.00054665,0.00015915,0.00010304,0.00024137,0.00003972,
 0.00037050,-0.00003965,-0.00022424,0.00098331,-0.00238652,-0.00676754,
 -0.00043840,0.00038938,0.00262152,-0.00415348,0.01973123,0.00173555,-0
 .00083016,0.01808095,0.06278216,-0.12367251,-0.01913706,0.04755078,-0.
 11389452,-0.01839064,-0.04203319,-0.03017402,-0.01093184,-0.02044832,-
 0.03964545,-0.01251618,0.02375353,0.00800817,0.00385648,-0.00943294,0.
 00138537,0.00056104,-0.00312908,0.00499346,0.00247122,0.00884756,0.004
 13479,0.00208380,0.00486651,-0.00330021,0.00009982,0.00068832,-0.00314
 931,-0.00069079,0.00162257,-0.00619554,0.00150051,-0.00331877,0.001507
 26,-0.00052682,0.00050396,0.65568352,-0.01925443,-0.10618771,0.0276159
 3,-0.01629083,-0.10670159,-0.03084113,-0.00248540,0.00147652,-0.000061
 09,0.00485550,0.00792323,-0.00617284,0.01294032,0.00514248,-0.01400442
 ,-0.02523284,-0.00977971,0.02904169,-0.02162811,-0.01006454,-0.0280902
 3,0.01354446,0.00822937,0.01805420,0.00046883,0.00059761,0.00030625,0.
 00071959,-0.00031798,-0.00024192,0.00274579,-0.00007261,0.00042401,0.0
 0051579,-0.00019349,-0.00016120,-0.03027541,0.63690808,0.05831423,0.02
 700110,-0.15901104,-0.04790930,-0.02814318,-0.15641472,-0.00729615,0.0
 0329618,0.00636586,0.00619743,-0.00158985,0.00252118,0.01849403,0.0098
 7225,-0.01788661,0.00370157,0.00057494,-0.00319124,-0.00606991,-0.0014
 2282,-0.00556459,-0.01556473,-0.01246446,-0.01887099,0.00184870,0.0000
 8206,-0.00146411,0.00059111,-0.00051595,-0.00079661,-0.00230422,-0.000
 58103,-0.00185337,-0.00043772,-0.00016656,0.00006822,-0.00303861,-0.00
 333639,0.46836736,-0.00080329,-0.02053976,-0.00009087,0.00005150,-0.01
 787580,0.00064262,0.00013348,0.00026292,-0.00031058,0.00101022,-0.0004
 0065,-0.00018724,0.00106025,0.00070250,-0.00060464,-0.00195099,-0.0013
 3695,0.00306342,-0.00135620,-0.00136000,-0.00237611,0.00140948,0.00045
 005,0.00072257,0.00001387,0.00017676,0.00006602,-0.00023839,-0.0000794
 0,-0.00008691,0.00018586,0.00035437,0.00001102,-0.00054645,0.00024173,
 0.00036010,-0.06412618,-0.01960486,0.00015879,0.06068178,0.00034804,-0
 .01031672,0.00043940,0.00063183,-0.00941431,0.00056594,-0.00016789,-0.
 00015411,-0.00031091,0.00047879,-0.00018779,-0.00047774,0.00014370,0.0
 0122113,0.00074732,-0.00142204,0.00127936,0.00186717,-0.00175867,0.000
 89377,-0.00162879,0.00017531,0.00199525,-0.00062364,-0.00010067,0.0000
 5958,0.00010744,-0.00037750,-0.00003970,-0.00007133,-0.00024375,0.0004
 8376,0.00008077,-0.00056463,0.00077325,-0.00015901,-0.02138125,-0.3255
 1224,0.00392494,0.02418965,0.35304566,0.00193518,0.03383050,-0.0018296
 5,-0.00124399,-0.03234525,-0.00197861,0.00022664,-0.00023285,-0.000707
 11,-0.00115472,0.00003630,0.00055964,-0.00144989,-0.00030123,0.0013243
 1,0.00508571,0.00195551,-0.00455288,-0.00441549,-0.00232253,-0.0044587
 1,0.00122952,0.00022940,0.00184958,-0.00010758,0.00015785,0.00007008,-
 0.00034121,-0.00004010,0.00009479,-0.00019737,-0.00028920,-0.00010912,
 0.00042012,-0.00040930,0.00051989,0.00050424,0.00383141,-0.05425072,-0
 .00054257,-0.00483556,0.06337625,-0.01333049,0.00776187,-0.00359460,-0
 .01194453,0.00696373,0.00231676,-0.00088860,-0.00064224,-0.00129135,-0
 .00179198,-0.00223282,0.00239022,-0.00021914,0.00000632,0.00082641,0.0
 0087373,-0.00082849,-0.00041438,0.00131172,-0.00088839,0.00024075,-0.0
 0067539,-0.00036146,-0.00089338,-0.00061934,-0.00016534,-0.00000195,-0
 .00060340,-0.00008487,0.00000034,-0.00118700,0.00028052,-0.00030411,0.
 00019797,0.00022002,0.00000706,-0.29155484,0.09898161,-0.00668523,0.00
 447505,0.00004909,0.00005140,0.31595625,-0.01090951,0.00399272,-0.0012
 1972,-0.01225557,0.00415506,0.00037000,-0.00241644,-0.00017870,-0.0013
 2621,-0.00181299,-0.00049621,0.00076227,0.00039526,0.00000963,-0.00007
 122,0.00004889,0.00106724,-0.00081984,-0.00022244,0.00138399,0.0006500
 2,0.00004440,0.00012823,-0.00029260,-0.00032594,-0.00008166,0.00004970
 ,-0.00057861,-0.00006037,0.00011197,-0.00052797,0.00040113,-0.00002944
 ,-0.00047610,0.00046546,-0.00001799,0.10327714,-0.10144741,0.00346877,
 0.03481945,-0.01412689,0.00073506,-0.10905956,0.10478778,0.02718748,-0
 .01399251,0.00495212,-0.02677889,0.01185383,0.00201979,-0.00191233,-0.
 00120132,-0.00462240,0.00327394,0.00238481,-0.00583329,-0.00041392,-0.
 00047303,-0.00027230,-0.00146060,-0.00003202,0.00171696,0.00105918,0.0
 0015383,0.00209238,-0.00039569,0.00005798,-0.00128275,-0.00087414,-0.0
 0012950,0.00025145,-0.00089453,-0.00000810,0.00043165,0.00183643,-0.00
 017685,0.00098898,-0.00021683,-0.00007607,-0.00010294,-0.00693655,0.00
 363572,-0.05801862,-0.00082562,0.00037402,0.00009227,0.00735206,-0.002
 37078,0.05758668\\-0.00000213,-0.00000296,0.00000743,0.00000003,-0.000
 00167,0.00000265,-0.00000325,0.00000200,-0.00000263,0.00000095,-0.0000
 0016,-0.00000107,0.00000014,0.00000087,0.00000062,0.00000114,0.0000024
 7,-0.00000108,-0.00000058,0.00000035,-0.00000018,-0.00000031,0.0000006
 2,-0.00000090,0.00000014,-0.00000127,-0.00000019,0.00000028,-0.0000005
 8,-0.00000022,0.00000029,-0.00000007,-0.00000108,0.00000064,0.,0.00000
 062,0.00000461,0.00000376,-0.00000576,-0.00000111,-0.00000265,0.000001
 55,-0.00000082,-0.00000071,0.00000024\\\@


 BE NOT THE FIRST BY WHOM THE NEW ARE TRIED,
 NOR YET THE THE LAST TO LAY THE OLD ASIDE.

                          -- ALEXANDER POPE
 Job cpu time:       0 days  0 hours  3 minutes 38.8 seconds.
 Elapsed time:       0 days  0 hours  0 minutes 18.5 seconds.
 File lengths (MBytes):  RWF=     44 Int=      0 D2E=      0 Chk=      4 Scr=      1
 Normal termination of Gaussian 16 at Mon Oct 10 14:25:21 2022.
